Program Version,EnergyPlus, Version 22.1.0-ed759b17ee, YMD=2025.02.10 19:52
1,5,Environment Title[],Latitude[deg],Longitude[deg],Time Zone[],Elevation[m]
2,8,Day of Simulation[],Month[],Day of Month[],DST Indicator[1=yes 0=no],Hour[],StartMinute[],EndMinute[],DayType
3,5,Cumulative Day of Simulation[],Month[],Day of Month[],DST Indicator[1=yes 0=no],DayType  ! When Daily Report Variables Requested
4,2,Cumulative Days of Simulation[],Month[]  ! When Monthly Report Variables Requested
5,1,Cumulative Days of Simulation[] ! When Run Period Report Variables Requested
6,1,Calendar Year of Simulation[] ! When Annual Report Variables Requested
7,1,Environment,Site Outdoor Air Drybulb Temperature [C] !TimeStep
8,1,Environment,Site Wind Speed [m/s] !TimeStep
9,1,Environment,Site Wind Direction [deg] !TimeStep
10,1,Environment,Site Horizontal Infrared Radiation Rate per Area [W/m2] !TimeStep
11,1,Environment,Site Direct Solar Radiation Rate per Area [W/m2] !TimeStep
12,1,Environment,Site Rain Status [] !TimeStep
467,1,COOLING COIL,Cooling Coil Total Cooling Energy [J] !TimeStep,REPORTSCH
504,1,COOLING COIL,Cooling Coil Electricity Energy [J] !TimeStep
541,1,MAIN HEATING COIL,Heating Coil Heating Energy [J] !TimeStep,REPORTSCH
554,1,MAIN HEATING COIL,Heating Coil Electricity Energy [J] !TimeStep
581,1,HEAT PUMP WATER HEATER EVAPORATOR_UNIT1,Cooling Coil Total Cooling Energy [J] !TimeStep,REPORTSCH
608,1,SUPPLY FAN,Fan Electricity Energy [J] !TimeStep
633,1,OASUPPLYFAN_UNIT1,Fan Electricity Energy [J] !TimeStep
646,1,OAEXHAUSTFAN_UNIT1,Fan Electricity Energy [J] !TimeStep
647,1,HEAT PUMP WATER HEATER FAN_UNIT1,Fan Electricity Energy [J] !TimeStep
648,1,LIVING ZONE,Zone Mean Air Temperature [C] !TimeStep
649,1,ATTIC_UNIT1,Zone Mean Air Temperature [C] !TimeStep
650,1,CRAWLSPACE_UNIT1,Zone Mean Air Temperature [C] !TimeStep
651,1,LIVING ZONE,Zone Ventilation Sensible Heat Loss Energy [J] !TimeStep,REPORTSCH
652,1,LIVING ZONE,Zone Ventilation Sensible Heat Gain Energy [J] !TimeStep,REPORTSCH
690,1,CRAWLSPACE_UNIT1,AFN Node Temperature [C] !TimeStep,REPORTSCH
691,1,LIVING ZONE,AFN Node Temperature [C] !TimeStep,REPORTSCH
692,1,ATTIC_UNIT1,AFN Node Temperature [C] !TimeStep,REPORTSCH
693,1,ExtNode   1,AFN Node Temperature [C] !TimeStep,REPORTSCH
694,1,ExtNode   2,AFN Node Temperature [C] !TimeStep,REPORTSCH
695,1,ExtNode   3,AFN Node Temperature [C] !TimeStep,REPORTSCH
696,1,ExtNode   4,AFN Node Temperature [C] !TimeStep,REPORTSCH
697,1,ExtNode   5,AFN Node Temperature [C] !TimeStep,REPORTSCH
698,1,ExtNode   6,AFN Node Temperature [C] !TimeStep,REPORTSCH
699,1,ExtNode   7,AFN Node Temperature [C] !TimeStep,REPORTSCH
700,1,ExtNode   8,AFN Node Temperature [C] !TimeStep,REPORTSCH
701,1,ExtNode   9,AFN Node Temperature [C] !TimeStep,REPORTSCH
702,1,ExtNode  10,AFN Node Temperature [C] !TimeStep,REPORTSCH
703,1,ExtNode  11,AFN Node Temperature [C] !TimeStep,REPORTSCH
704,1,ExtNode  12,AFN Node Temperature [C] !TimeStep,REPORTSCH
705,1,ExtNode  13,AFN Node Temperature [C] !TimeStep,REPORTSCH
706,1,ExtNode  14,AFN Node Temperature [C] !TimeStep,REPORTSCH
707,1,ExtNode  15,AFN Node Temperature [C] !TimeStep,REPORTSCH
708,1,ExtNode  16,AFN Node Temperature [C] !TimeStep,REPORTSCH
709,1,EQUIPMENTINLETNODE_UNIT1,AFN Node Temperature [C] !TimeStep,REPORTSCH
710,1,SPLITTERNODE_UNIT1,AFN Node Temperature [C] !TimeStep,REPORTSCH
711,1,ZONESUPPLYNODE_UNIT1,AFN Node Temperature [C] !TimeStep,REPORTSCH
712,1,ZONESUPPLYREGISTERNODE_UNIT1 ATINLET,AFN Node Temperature [C] !TimeStep,REPORTSCH
713,1,ZONESUPPLYREGISTERNODE_UNIT1,AFN Node Temperature [C] !TimeStep,REPORTSCH
714,1,ZONEOUTLETNODE_UNIT1,AFN Node Temperature [C] !TimeStep,REPORTSCH
715,1,ZONERETURNNODE_UNIT1,AFN Node Temperature [C] !TimeStep,REPORTSCH
716,1,MIXERNODE_UNIT1,AFN Node Temperature [C] !TimeStep,REPORTSCH
717,1,MAINRETURNNODE_UNIT1,AFN Node Temperature [C] !TimeStep,REPORTSCH
718,1,MAININLETNODE_UNIT1,AFN Node Temperature [C] !TimeStep,REPORTSCH
719,1,FANOUTLETNODE_UNIT1,AFN Node Temperature [C] !TimeStep,REPORTSCH
720,1,HEATINGINLETNODE_UNIT1,AFN Node Temperature [C] !TimeStep,REPORTSCH
721,1,HEATINGOUTLETNODE_UNIT1,AFN Node Temperature [C] !TimeStep,REPORTSCH
722,1,SUPPHEATINGINLETNODE_UNIT1,AFN Node Temperature [C] !TimeStep,REPORTSCH
723,1,LIVING ZONE,AFN Zone Infiltration Sensible Heat Gain Energy [J] !TimeStep,REPORTSCH
724,1,LIVING ZONE,AFN Zone Mixing Sensible Heat Gain Energy [J] !TimeStep,REPORTSCH
725,1,LIVING ZONE,AFN Zone Infiltration Sensible Heat Loss Energy [J] !TimeStep,REPORTSCH
726,1,LIVING ZONE,AFN Zone Mixing Sensible Heat Loss Energy [J] !TimeStep,REPORTSCH
727,1,LIVING ZONE,AFN Zone Duct Leaked Air Sensible Heat Gain Energy [J] !TimeStep,REPORTSCH
728,1,LIVING ZONE,AFN Zone Duct Leaked Air Sensible Heat Loss Energy [J] !TimeStep,REPORTSCH
729,1,LIVING ZONE,AFN Zone Duct Conduction Sensible Heat Gain Energy [J] !TimeStep,REPORTSCH
730,1,LIVING ZONE,AFN Zone Duct Conduction Sensible Heat Loss Energy [J] !TimeStep,REPORTSCH
731,1,LIVING ZONE,AFN Distribution Sensible Heat Gain Rate [W] !TimeStep,REPORTSCH
732,1,LIVING ZONE,AFN Distribution Sensible Heat Gain Energy [J] !TimeStep,REPORTSCH
733,1,LIVING ZONE,AFN Distribution Sensible Heat Loss Rate [W] !TimeStep,REPORTSCH
734,1,LIVING ZONE,AFN Distribution Sensible Heat Loss Energy [J] !TimeStep,REPORTSCH
735,1,ATTIC_UNIT1,AFN Zone Infiltration Sensible Heat Gain Energy [J] !TimeStep,REPORTSCH
736,1,ATTIC_UNIT1,AFN Zone Mixing Sensible Heat Gain Energy [J] !TimeStep,REPORTSCH
737,1,ATTIC_UNIT1,AFN Zone Infiltration Sensible Heat Loss Energy [J] !TimeStep,REPORTSCH
738,1,ATTIC_UNIT1,AFN Zone Mixing Sensible Heat Loss Energy [J] !TimeStep,REPORTSCH
739,1,ATTIC_UNIT1,AFN Zone Duct Leaked Air Sensible Heat Gain Energy [J] !TimeStep,REPORTSCH
740,1,ATTIC_UNIT1,AFN Zone Duct Leaked Air Sensible Heat Loss Energy [J] !TimeStep,REPORTSCH
741,1,ATTIC_UNIT1,AFN Zone Duct Conduction Sensible Heat Gain Energy [J] !TimeStep,REPORTSCH
742,1,ATTIC_UNIT1,AFN Zone Duct Conduction Sensible Heat Loss Energy [J] !TimeStep,REPORTSCH
743,1,ATTIC_UNIT1,AFN Distribution Sensible Heat Gain Rate [W] !TimeStep,REPORTSCH
744,1,ATTIC_UNIT1,AFN Distribution Sensible Heat Gain Energy [J] !TimeStep,REPORTSCH
745,1,ATTIC_UNIT1,AFN Distribution Sensible Heat Loss Rate [W] !TimeStep,REPORTSCH
746,1,ATTIC_UNIT1,AFN Distribution Sensible Heat Loss Energy [J] !TimeStep,REPORTSCH
747,1,CRAWLSPACE_UNIT1,AFN Zone Infiltration Sensible Heat Gain Energy [J] !TimeStep,REPORTSCH
748,1,CRAWLSPACE_UNIT1,AFN Zone Mixing Sensible Heat Gain Energy [J] !TimeStep,REPORTSCH
749,1,CRAWLSPACE_UNIT1,AFN Zone Infiltration Sensible Heat Loss Energy [J] !TimeStep,REPORTSCH
750,1,CRAWLSPACE_UNIT1,AFN Zone Mixing Sensible Heat Loss Energy [J] !TimeStep,REPORTSCH
751,1,CRAWLSPACE_UNIT1,AFN Zone Duct Leaked Air Sensible Heat Gain Energy [J] !TimeStep,REPORTSCH
752,1,CRAWLSPACE_UNIT1,AFN Zone Duct Leaked Air Sensible Heat Loss Energy [J] !TimeStep,REPORTSCH
753,1,CRAWLSPACE_UNIT1,AFN Zone Duct Conduction Sensible Heat Gain Energy [J] !TimeStep,REPORTSCH
754,1,CRAWLSPACE_UNIT1,AFN Zone Duct Conduction Sensible Heat Loss Energy [J] !TimeStep,REPORTSCH
755,1,CRAWLSPACE_UNIT1,AFN Distribution Sensible Heat Gain Rate [W] !TimeStep,REPORTSCH
756,1,CRAWLSPACE_UNIT1,AFN Distribution Sensible Heat Gain Energy [J] !TimeStep,REPORTSCH
757,1,CRAWLSPACE_UNIT1,AFN Distribution Sensible Heat Loss Rate [W] !TimeStep,REPORTSCH
758,1,CRAWLSPACE_UNIT1,AFN Distribution Sensible Heat Loss Energy [J] !TimeStep,REPORTSCH
881,1,LIVING ZONE,Zone Air Temperature [C] !TimeStep,REPORTSCH
882,1,LIVING ZONE,Zone Air Temperature [C] !TimeStep
883,1,LIVING ZONE,Zone Thermostat Heating Setpoint Temperature [C] !TimeStep
884,1,LIVING ZONE,Zone Thermostat Cooling Setpoint Temperature [C] !TimeStep
947,1,ATTIC_UNIT1,Zone Air Temperature [C] !TimeStep,REPORTSCH
948,1,ATTIC_UNIT1,Zone Air Temperature [C] !TimeStep
949,1,ATTIC_UNIT1,Zone Thermostat Heating Setpoint Temperature [C] !TimeStep
950,1,ATTIC_UNIT1,Zone Thermostat Cooling Setpoint Temperature [C] !TimeStep
1013,1,CRAWLSPACE_UNIT1,Zone Air Temperature [C] !TimeStep,REPORTSCH
1014,1,CRAWLSPACE_UNIT1,Zone Air Temperature [C] !TimeStep
1015,1,CRAWLSPACE_UNIT1,Zone Thermostat Heating Setpoint Temperature [C] !TimeStep
1016,1,CRAWLSPACE_UNIT1,Zone Thermostat Cooling Setpoint Temperature [C] !TimeStep
1306,1,SUPP HEATING COIL,Heating Coil Heating Energy [J] !TimeStep,REPORTSCH
1307,1,SUPP HEATING COIL,Heating Coil Electricity Energy [J] !TimeStep
505,1,Electricity:HVAC [J] !TimeStep
555,1,Heating:Electricity [J] !TimeStep
796,1,Heating:EnergyTransfer:Zone:LIVING ZONE [J] !TimeStep
End of Data Dictionary
1,INTERNATIONAL FALLS INTL AP ANN HTG 99.6% CONDNS DB,  41.92, -87.57,  -6.00, 202.00
2,1, 1,21, 0, 1, 0.00,15.00,WinterDesignDay
7,-32.7
8,2.4
9,210.0
10,130.6910553622799
11,0.0
648,16.242909797663238
649,-26.97483020836515
650,-10.283736318073393
12,0.0
467,0.0
504,0.0
541,0.0
554,0.0
581,0.0
608,213740.3768774369
633,22500.000000000015
646,22500.000000000015
647,0.0
651,0.0
652,0.0
690,16.237389440014773
691,16.237390817300085
692,-26.977730751359367
693,-32.69025000230098
694,-32.69025000230098
695,-32.69025000230098
696,-32.69025000230098
697,-32.69025000230098
698,-32.69025000230098
699,-32.69025000230098
700,-32.69025000230098
701,-32.69025000230098
702,-32.69025000230098
703,-32.69025000230098
704,-32.69025000230098
705,-32.69025000230098
706,-32.69025000230098
707,-32.69025000230098
708,-32.69025000230098
709,47.175125494165485
710,46.77713282835076
711,43.86210081459665
712,40.956092014955786
713,40.95607306502059
714,16.237390817300092
715,15.743784944801556
716,15.2576150288554
717,15.197515475559399
718,15.197515475559394
719,15.87302967076591
720,15.87302967076591
721,47.175125494165485
722,15.87302967076591
723,0.0
724,0.0
725,2510700.5726958476
726,1464.3364685209606
727,0.0
728,0.0
729,0.0
730,0.0
731,0.0
732,0.0
733,0.0
734,0.0
735,0.0
736,1805851.7369193533
737,3030962.3339513205
738,0.0
739,967258.5474519442
740,0.0
741,1928081.8288162467
742,0.0
743,3217.0448625202125
744,2895340.3762681913
745,0.0
746,0.0
747,0.0
748,0.0
749,5342983.9584866855
750,0.0
751,0.0
752,0.0
753,321407.79291615036
754,0.0
755,357.1197699068337
756,321407.79291615036
757,0.0
758,0.0
881,16.242909797663238
882,16.242909797663238
883,22.2222222222223
884,23.888888888889
947,-26.97483020836515
948,-26.97483020836515
949,0.0
950,0.0
1013,-10.283736318073393
1014,-10.283736318073393
1015,0.0
1016,0.0
1306,9904339.251230206
1307,9904339.251230206
505,10343079.628107643
555,10084339.251230206
796,6987903.249660927
2,1, 1,21, 0, 1,15.00,30.00,WinterDesignDay
7,-32.7
8,2.4
9,210.0
10,130.6910553622799
11,0.0
648,16.24442996057483
649,-26.973040458489226
650,-10.28281175613346
12,0.0
467,0.0
504,0.0
541,0.0
554,0.0
581,0.0
608,213740.3768774369
633,22500.000000000015
646,22500.000000000015
647,0.0
651,0.0
652,0.0
690,16.242909797663238
691,16.242911175109718
692,-26.97483020836515
693,-32.69025000230098
694,-32.69025000230098
695,-32.69025000230098
696,-32.69025000230098
697,-32.69025000230098
698,-32.69025000230098
699,-32.69025000230098
700,-32.69025000230098
701,-32.69025000230098
702,-32.69025000230098
703,-32.69025000230098
704,-32.69025000230098
705,-32.69025000230098
706,-32.69025000230098
707,-32.69025000230098
708,-32.69025000230098
709,47.180963066948706
710,46.782947082758575
711,43.867745563200764
712,40.961568383843
713,40.96154943281804
714,16.24291117510972
715,15.74921279711136
716,15.262951752789977
717,15.202840949585973
718,15.202840949585974
719,15.878365962673477
720,15.878365962673477
721,47.18096306694871
722,15.878365962673477
723,0.0
724,0.0
725,2510820.66386763
726,1464.3789789341195
727,0.0
728,0.0
729,0.0
730,0.0
731,0.0
732,0.0
733,0.0
734,0.0
735,0.0
736,1805860.0253082444
737,3031929.5381403062
738,0.0
739,967302.1560835483
740,0.0
741,1928162.3475657771
742,0.0
743,3217.1827818325837
744,2895464.503649325
745,0.0
746,0.0
747,0.0
748,0.0
749,5343201.034240048
750,0.0
751,0.0
752,0.0
753,321462.7849268251
754,0.0
755,357.1808721409168
756,321462.7849268251
757,0.0
758,0.0
881,16.24442996057483
882,16.24442996057483
883,22.2222222222223
884,23.888888888889
947,-26.973040458489226
948,-26.973040458489226
949,0.0
950,0.0
1013,-10.28281175613346
1014,-10.28281175613346
1015,0.0
1016,0.0
1306,9904339.251230206
1307,9904339.251230206
505,10343079.628107643
555,10084339.251230206
796,6989046.380429299
2,1, 1,21, 0, 1,30.00,45.00,WinterDesignDay
7,-32.7
8,2.4
9,210.0
10,130.6910553622799
11,0.0
648,16.24749911336146
649,-26.972101213024207
650,-10.28203925177384
12,0.0
467,0.0
504,0.0
541,0.0
554,0.0
581,0.0
608,213740.3768774369
633,22500.000000000015
646,22500.000000000015
647,0.0
651,0.0
652,0.0
690,16.24442996057483
691,16.244431338061837
692,-26.97304045848923
693,-32.69025000230098
694,-32.69025000230098
695,-32.69025000230098
696,-32.69025000230098
697,-32.69025000230098
698,-32.69025000230098
699,-32.69025000230098
700,-32.69025000230098
701,-32.69025000230098
702,-32.69025000230098
703,-32.69025000230098
704,-32.69025000230098
705,-32.69025000230098
706,-32.69025000230098
707,-32.69025000230098
708,-32.69025000230098
709,47.18299254874863
710,46.78496807276319
711,43.86970559480222
712,40.96347044187745
713,40.9634514904819
714,16.244431338061837
715,15.750713201385949
716,15.264432676416657
717,15.204319477134675
718,15.204319477134677
719,15.87985612890992
720,15.87985612890992
721,47.18299254874863
722,15.87985612890992
723,0.0
724,0.0
725,2510931.1198582468
726,1464.4492799299996
727,0.0
728,0.0
729,0.0
730,0.0
731,0.0
732,0.0
733,0.0
734,0.0
735,0.0
736,1805902.7105073093
737,3032439.1129352786
738,0.0
739,967290.7574354336
740,0.0
741,1928168.846191867
742,0.0
743,3217.1773373636674
744,2895459.603627301
745,0.0
746,0.0
747,0.0
748,0.0
749,5343379.156023601
750,0.0
751,0.0
752,0.0
753,321470.18073804374
754,0.0
755,357.1890897089375
756,321470.18073804374
757,0.0
758,0.0
881,16.24749911336146
882,16.24749911336146
883,22.2222222222223
884,23.888888888889
947,-26.972101213024207
948,-26.972101213024207
949,0.0
950,0.0
1013,-10.28203925177384
1014,-10.28203925177384
1015,0.0
1016,0.0
1306,9904339.251230206
1307,9904339.251230206
505,10343079.628107643
555,10084339.251230206
796,6988511.542056224
2,1, 1,21, 0, 1,45.00,60.00,WinterDesignDay
7,-32.7
8,2.4
9,210.0
10,130.6910553622799
11,0.0
648,16.25206455890296
649,-26.971198829065358
650,-10.281328438651203
12,0.0
467,0.0
504,0.0
541,0.0
554,0.0
581,0.0
608,213740.3768774369
633,22500.000000000015
646,22500.000000000015
647,0.0
651,0.0
652,0.0
690,16.24749911336146
691,16.247500490932406
692,-26.972101213024207
693,-32.69025000230098
694,-32.69025000230098
695,-32.69025000230098
696,-32.69025000230098
697,-32.69025000230098
698,-32.69025000230098
699,-32.69025000230098
700,-32.69025000230098
701,-32.69025000230098
702,-32.69025000230098
703,-32.69025000230098
704,-32.69025000230098
705,-32.69025000230098
706,-32.69025000230098
707,-32.69025000230098
708,-32.69025000230098
709,47.18647074092906
710,46.78842540729732
711,43.87301140278557
712,40.96662772378083
713,40.96660877142442
714,16.247500490932406
715,15.753730012288747
716,15.26739792173221
717,15.207278361224729
718,15.207278361224729
719,15.88282598317524
720,15.88282598317524
721,47.18647074092906
722,15.88282598317524
723,0.0
724,0.0
725,2511147.6009129323
726,1464.6340667757754
727,0.0
728,0.0
729,0.0
730,0.0
731,0.0
732,0.0
733,0.0
734,0.0
735,0.0
736,1806030.814294138
737,3032920.36810546
738,0.0
739,967312.1215446601
740,0.0
741,1928237.13548236
742,0.0
743,3217.2769522522444
744,2895549.25702702
745,0.0
746,0.0
747,0.0
748,0.0
749,5343544.629421208
750,0.0
751,0.0
752,0.0
753,321499.05085303757
754,0.0
755,357.2211676144862
756,321499.05085303757
757,0.0
758,0.0
881,16.25206455890296
882,16.25206455890296
883,22.2222222222223
884,23.888888888889
947,-26.971198829065358
948,-26.971198829065358
949,0.0
950,0.0
1013,-10.281328438651203
1014,-10.281328438651203
1015,0.0
1016,0.0
1306,9904339.251230206
1307,9904339.251230206
505,10343079.628107643
555,10084339.251230206
796,6987895.06143796
2,1, 1,21, 0, 2, 0.00,15.00,WinterDesignDay
7,-32.7
8,2.4
9,210.0
10,130.6910553622799
11,0.0
648,16.252736625443134
649,-26.970280948866026
650,-10.28072041459704
12,0.0
467,0.0
504,0.0
541,0.0
554,0.0
581,0.0
608,213740.3768774369
633,22500.000000000015
646,22500.000000000015
647,0.0
651,0.0
652,0.0
690,16.25206455890296
691,16.252065936602246
692,-26.971198829065358
693,-32.69025000230098
694,-32.69025000230098
695,-32.69025000230098
696,-32.69025000230098
697,-32.69025000230098
698,-32.69025000230098
699,-32.69025000230098
700,-32.69025000230098
701,-32.69025000230098
702,-32.69025000230098
703,-32.69025000230098
704,-32.69025000230098
705,-32.69025000230098
706,-32.69025000230098
707,-32.69025000230098
708,-32.69025000230098
709,47.19133303555297
710,46.793259500506316
711,43.87764012883252
712,40.97105341076096
713,40.97103445708805
714,16.252065936602243
715,15.758213592612407
716,15.27180086266516
717,15.211671347479086
718,15.211671347479083
719,15.887228883380809
720,15.887228883380809
721,47.19133303555297
722,15.887228883380809
723,0.0
724,0.0
725,2511200.546875012
726,1464.6386504706377
727,0.0
728,0.0
729,0.0
730,0.0
731,0.0
732,0.0
733,0.0
734,0.0
735,0.0
736,1806021.5316039117
737,3033408.9529475034
738,0.0
739,967359.1185007737
740,0.0
741,1928344.0404354692
742,0.0
743,3217.4479543736034
744,2895703.158936243
745,0.0
746,0.0
747,0.0
748,0.0
749,5343687.407028347
750,0.0
751,0.0
752,0.0
753,321547.57933542074
754,0.0
755,357.27508815046747
756,321547.57933542074
757,0.0
758,0.0
881,16.252736625443134
882,16.252736625443134
883,22.2222222222223
884,23.888888888889
947,-26.970280948866026
948,-26.970280948866026
949,0.0
950,0.0
1013,-10.28072041459704
1014,-10.28072041459704
1015,0.0
1016,0.0
1306,9904339.251230206
1307,9904339.251230206
505,10343079.628107643
555,10084339.251230206
796,6988996.660909609
2,1, 1,21, 0, 2,15.00,30.00,WinterDesignDay
7,-32.7
8,2.4
9,210.0
10,130.6910553622799
11,0.0
648,16.252090181673662
649,-26.96977356662701
650,-10.28018301796347
12,0.0
467,0.0
504,0.0
541,0.0
554,0.0
581,0.0
608,213740.3768774369
633,22500.000000000015
646,22500.000000000015
647,0.0
651,0.0
652,0.0
690,16.252736625443134
691,16.25273800315677
692,-26.97028094886603
693,-32.69025000230098
694,-32.69025000230098
695,-32.69025000230098
696,-32.69025000230098
697,-32.69025000230098
698,-32.69025000230098
699,-32.69025000230098
700,-32.69025000230098
701,-32.69025000230098
702,-32.69025000230098
703,-32.69025000230098
704,-32.69025000230098
705,-32.69025000230098
706,-32.69025000230098
707,-32.69025000230098
708,-32.69025000230098
709,47.19246757725079
710,46.7943867012219
711,43.878714627150515
712,40.9720783787904
713,40.97205942480084
714,16.252738003156775
715,15.758877261689703
716,15.272456247065561
717,15.212325717812645
718,15.212325717812645
719,15.88789339714199
720,15.88789339714199
721,47.19246757725078
722,15.88789339714199
723,0.0
724,0.0
725,2511110.179259253
726,1464.513664644905
727,0.0
728,0.0
729,0.0
730,0.0
731,0.0
732,0.0
733,0.0
734,0.0
735,0.0
736,1805919.6363096202
737,3033682.9566647727
738,0.0
739,967344.2379048166
740,0.0
741,1928349.4504043972
742,0.0
743,3217.437431454682
744,2895693.688309214
745,0.0
746,0.0
747,0.0
748,0.0
749,5343810.485941122
750,0.0
751,0.0
752,0.0
753,321548.30901699624
754,0.0
755,357.2758989077736
756,321548.30901699624
757,0.0
758,0.0
881,16.252090181673662
882,16.252090181673662
883,22.2222222222223
884,23.888888888889
947,-26.96977356662701
948,-26.96977356662701
949,0.0
950,0.0
1013,-10.28018301796347
1014,-10.28018301796347
1015,0.0
1016,0.0
1306,9904339.251230206
1307,9904339.251230206
505,10343079.628107643
555,10084339.251230206
796,6989433.525660551
2,1, 1,21, 0, 2,30.00,45.00,WinterDesignDay
7,-32.7
8,2.4
9,210.0
10,130.6910553622799
11,0.0
648,16.252321595955355
649,-26.96949362224655
650,-10.279673018969682
12,0.0
467,0.0
504,0.0
541,0.0
554,0.0
581,0.0
608,213740.3768774369
633,22500.000000000015
646,22500.000000000015
647,0.0
651,0.0
652,0.0
690,16.252090181673665
691,16.252091559362295
692,-26.96977356662701
693,-32.69025000230098
694,-32.69025000230098
695,-32.69025000230098
696,-32.69025000230098
697,-32.69025000230098
698,-32.69025000230098
699,-32.69025000230098
700,-32.69025000230098
701,-32.69025000230098
702,-32.69025000230098
703,-32.69025000230098
704,-32.69025000230098
705,-32.69025000230098
706,-32.69025000230098
707,-32.69025000230098
708,-32.69025000230098
709,47.19231925065259
710,46.79423619247473
711,43.87854912296178
712,40.9719014557551
713,40.9718825016968
714,16.25209155936229
715,15.758246896769183
716,15.271841704078225
717,15.211713139133604
718,15.2117131391336
719,15.887290625602082
720,15.887290625602082
721,47.19231925065259
722,15.887290625602082
723,0.0
724,0.0
725,2511039.6764285318
726,1464.420890987215
727,0.0
728,0.0
729,0.0
730,0.0
731,0.0
732,0.0
733,0.0
734,0.0
735,0.0
736,1805846.0114641467
737,3033833.7216534526
738,0.0
739,967312.7219076842
740,0.0
741,1928330.9490985014
742,0.0
743,3217.3818566735395
744,2895643.6710061855
745,0.0
746,0.0
747,0.0
748,0.0
749,5343926.316865982
750,0.0
751,0.0
752,0.0
753,321533.3085538361
754,0.0
755,357.25923172648453
756,321533.3085538361
757,0.0
758,0.0
881,16.252321595955355
882,16.252321595955355
883,22.2222222222223
884,23.888888888889
947,-26.96949362224655
948,-26.96949362224655
949,0.0
950,0.0
1013,-10.279673018969682
1014,-10.279673018969682
1015,0.0
1016,0.0
1306,9904339.251230206
1307,9904339.251230206
505,10343079.628107643
555,10084339.251230206
796,6989193.910027435
2,1, 1,21, 0, 2,45.00,60.00,WinterDesignDay
7,-32.7
8,2.4
9,210.0
10,130.6910553622799
11,0.0
648,16.25340201559231
649,-26.969179958077024
650,-10.279175374805838
12,0.0
467,0.0
504,0.0
541,0.0
554,0.0
581,0.0
608,213740.3768774369
633,22500.000000000015
646,22500.000000000015
647,0.0
651,0.0
652,0.0
690,16.252321595955358
691,16.252322973644603
692,-26.96949362224655
693,-32.69025000230098
694,-32.69025000230098
695,-32.69025000230098
696,-32.69025000230098
697,-32.69025000230098
698,-32.69025000230098
699,-32.69025000230098
700,-32.69025000230098
701,-32.69025000230098
702,-32.69025000230098
703,-32.69025000230098
704,-32.69025000230098
705,-32.69025000230098
706,-32.69025000230098
707,-32.69025000230098
708,-32.69025000230098
709,47.19297748092138
710,46.79488691719089
711,43.8791458213209
712,40.972447396399716
713,40.972428442016
714,16.252322973644606
715,15.758477331507496
716,15.27207116211031
717,15.21194248507028
718,15.21194248507028
719,15.88752903154838
720,15.88752903154838
721,47.192977480921385
722,15.88752903154838
723,0.0
724,0.0
725,2511033.565895214
726,1464.3942616644133
727,0.0
728,0.0
729,0.0
730,0.0
731,0.0
732,0.0
733,0.0
734,0.0
735,0.0
736,1805822.4352233752
737,3033999.80642263
738,0.0
739,967298.287194955
740,0.0
741,1928340.397949417
742,0.0
743,3217.37631682708
744,2895638.685144372
745,0.0
746,0.0
747,0.0
748,0.0
749,5344040.258323983
750,0.0
751,0.0
752,0.0
753,321529.73015632405
754,0.0
755,357.255255729249
756,321529.73015632405
757,0.0
758,0.0
881,16.25340201559231
882,16.25340201559231
883,22.2222222222223
884,23.888888888889
947,-26.969179958077024
948,-26.969179958077024
949,0.0
950,0.0
1013,-10.279175374805838
1014,-10.279175374805838
1015,0.0
1016,0.0
1306,9904339.251230206
1307,9904339.251230206
505,10343079.628107643
555,10084339.251230206
796,6988914.395272385
2,1, 1,21, 0, 3, 0.00,15.00,WinterDesignDay
7,-32.7
8,2.4
9,210.0
10,130.6910553622799
11,0.0
648,16.253862341771917
649,-26.968812241891683
650,-10.278687768503033
12,0.0
467,0.0
504,0.0
541,0.0
554,0.0
581,0.0
608,213740.3768774369
633,22500.000000000015
646,22500.000000000015
647,0.0
651,0.0
652,0.0
690,16.25340201559231
691,16.253403393307725
692,-26.969179958077024
693,-32.69025000230098
694,-32.69025000230098
695,-32.69025000230098
696,-32.69025000230098
697,-32.69025000230098
698,-32.69025000230098
699,-32.69025000230098
700,-32.69025000230098
701,-32.69025000230098
702,-32.69025000230098
703,-32.69025000230098
704,-32.69025000230098
705,-32.69025000230098
706,-32.69025000230098
707,-32.69025000230098
708,-32.69025000230098
709,47.1944117636067
710,46.79631000870779
711,43.8804878379657
712,40.97371110014167
713,40.97369214525264
714,16.25340339330772
715,15.759540620015313
716,15.273117567834273
717,15.212986812511431
718,15.212986812511431
719,15.888581596637776
720,15.888581596637776
721,47.1944117636067
722,15.888581596637776
723,0.0
724,0.0
725,2511018.1421186016
726,1464.3518291726714
727,0.0
728,0.0
729,0.0
730,0.0
731,0.0
732,0.0
733,0.0
734,0.0
735,0.0
736,1805787.1185834233
737,3034194.502748705
738,0.0
739,967298.3542559096
740,0.0
741,1928370.0882140638
742,0.0
743,3217.409380522193
744,2895668.4424699736
745,0.0
746,0.0
747,0.0
748,0.0
749,5344152.815685729
750,0.0
751,0.0
752,0.0
753,321537.0178928035
754,0.0
755,357.2633532142261
756,321537.0178928035
757,0.0
758,0.0
881,16.253862341771917
882,16.253862341771917
883,22.2222222222223
884,23.888888888889
947,-26.968812241891683
948,-26.968812241891683
949,0.0
950,0.0
1013,-10.278687768503033
1014,-10.278687768503033
1015,0.0
1016,0.0
1306,9904339.251230206
1307,9904339.251230206
505,10343079.628107643
555,10084339.251230206
796,6989082.26361187
2,1, 1,21, 0, 3,15.00,30.00,WinterDesignDay
7,-32.7
8,2.4
9,210.0
10,130.6910553622799
11,0.0
648,16.254029352774108
649,-26.96852718307079
650,-10.278225219962811
12,0.0
467,0.0
504,0.0
541,0.0
554,0.0
581,0.0
608,213740.3768774369
633,22500.000000000015
646,22500.000000000015
647,0.0
651,0.0
652,0.0
690,16.253862341771917
691,16.253863719495484
692,-26.968812241891683
693,-32.69025000230098
694,-32.69025000230098
695,-32.69025000230098
696,-32.69025000230098
697,-32.69025000230098
698,-32.69025000230098
699,-32.69025000230098
700,-32.69025000230098
701,-32.69025000230098
702,-32.69025000230098
703,-32.69025000230098
704,-32.69025000230098
705,-32.69025000230098
706,-32.69025000230098
707,-32.69025000230098
708,-32.69025000230098
709,47.19525230158422
710,46.79714296378246
711,43.88126612490782
712,40.97443756994356
713,40.97441861472179
714,16.253863719495484
715,15.759995644939378
716,15.273567360450482
717,15.21343596644458
718,15.21343596644458
719,15.889039018402
720,15.889039018402
721,47.19525230158421
722,15.889039018402
723,0.0
724,0.0
725,2510976.0798674584
726,1464.2853329203892
727,0.0
728,0.0
729,0.0
730,0.0
731,0.0
732,0.0
733,0.0
734,0.0
735,0.0
736,1805735.1505843257
737,3034346.5883501284
738,0.0
739,967288.2415242924
740,0.0
741,1928382.248337674
742,0.0
743,3217.411655402185
744,2895670.489861966
745,0.0
746,0.0
747,0.0
748,0.0
749,5344258.922513595
750,0.0
751,0.0
752,0.0
753,321536.6120277618
754,0.0
755,357.26290225306866
756,321536.6120277618
757,0.0
758,0.0
881,16.254029352774108
882,16.254029352774108
883,22.2222222222223
884,23.888888888889
947,-26.96852718307079
948,-26.96852718307079
949,0.0
950,0.0
1013,-10.278225219962811
1014,-10.278225219962811
1015,0.0
1016,0.0
1306,9904339.251230206
1307,9904339.251230206
505,10343079.628107643
555,10084339.251230206
796,6989173.292799125
2,1, 1,21, 0, 3,30.00,45.00,WinterDesignDay
7,-32.7
8,2.4
9,210.0
10,130.6910553622799
11,0.0
648,16.25444511711161
649,-26.96830661632509
650,-10.277787422544069
12,0.0
467,0.0
504,0.0
541,0.0
554,0.0
581,0.0
608,213740.3768774369
633,22500.000000000015
646,22500.000000000015
647,0.0
651,0.0
652,0.0
690,16.254029352774108
691,16.254030730497313
692,-26.968527183070794
693,-32.69025000230098
694,-32.69025000230098
695,-32.69025000230098
696,-32.69025000230098
697,-32.69025000230098
698,-32.69025000230098
699,-32.69025000230098
700,-32.69025000230098
701,-32.69025000230098
702,-32.69025000230098
703,-32.69025000230098
704,-32.69025000230098
705,-32.69025000230098
706,-32.69025000230098
707,-32.69025000230098
708,-32.69025000230098
709,47.19579437019643
710,46.79767888068817
711,43.88175780995109
712,40.974887853466115
713,40.974868897979235
714,16.254030730497313
715,15.760162814279733
716,15.273734674848024
717,15.21360330627019
718,15.213603306270189
719,15.889214274223038
720,15.889214274223038
721,47.19579437019644
722,15.889214274223038
723,0.0
724,0.0
725,2510943.257573305
726,1464.2321037770594
727,0.0
728,0.0
729,0.0
730,0.0
731,0.0
732,0.0
733,0.0
734,0.0
735,0.0
736,1805694.4158208056
737,3034464.0291120857
738,0.0
739,967274.8057263386
740,0.0
741,1928388.538026371
742,0.0
743,3217.4037152807887
744,2895663.3437527097
745,0.0
746,0.0
747,0.0
748,0.0
749,5344359.093454172
750,0.0
751,0.0
752,0.0
753,321532.82598880265
754,0.0
755,357.2586955431141
756,321532.82598880265
757,0.0
758,0.0
881,16.25444511711161
882,16.25444511711161
883,22.2222222222223
884,23.888888888889
947,-26.96830661632509
948,-26.96830661632509
949,0.0
950,0.0
1013,-10.277787422544069
1014,-10.277787422544069
1015,0.0
1016,0.0
1306,9904339.251230206
1307,9904339.251230206
505,10343079.628107643
555,10084339.251230206
796,6989096.090775358
2,1, 1,21, 0, 3,45.00,60.00,WinterDesignDay
7,-32.7
8,2.4
9,210.0
10,130.6910553622799
11,0.0
648,16.25516135493121
649,-26.968081883747303
650,-10.27736695879291
12,0.0
467,0.0
504,0.0
541,0.0
554,0.0
581,0.0
608,213740.3768774369
633,22500.000000000015
646,22500.000000000015
647,0.0
651,0.0
652,0.0
690,16.25444511711161
691,16.25444649484204
692,-26.968306616325094
693,-32.69025000230098
694,-32.69025000230098
695,-32.69025000230098
696,-32.69025000230098
697,-32.69025000230098
698,-32.69025000230098
699,-32.69025000230098
700,-32.69025000230098
701,-32.69025000230098
702,-32.69025000230098
703,-32.69025000230098
704,-32.69025000230098
705,-32.69025000230098
706,-32.69025000230098
707,-32.69025000230098
708,-32.69025000230098
709,47.19654549941777
710,46.79842269978261
711,43.88244885848244
712,40.97552872015437
713,40.975509764344835
714,16.25444649484204
715,15.760573862523186
716,15.27414106835816
717,15.21400913154124
718,15.214009131541237
719,15.88962739390164
720,15.88962739390164