Program Version,EnergyPlus, Version 22.1.0-ed759b17ee, YMD=2025.02.10 10:23
1,5,Environment Title[],Latitude[deg],Longitude[deg],Time Zone[],Elevation[m]
2,8,Day of Simulation[],Month[],Day of Month[],DST Indicator[1=yes 0=no],Hour[],StartMinute[],EndMinute[],DayType
3,5,Cumulative Day of Simulation[],Month[],Day of Month[],DST Indicator[1=yes 0=no],DayType  ! When Daily Meters Requested
4,2,Cumulative Days of Simulation[],Month[]  ! When Monthly Meters Requested
5,1,Cumulative Days of Simulation[] ! When Run Period Meters Requested
6,1,Calendar Year of Simulation[] ! When Annual Meters Requested
505,1,Electricity:HVAC [J] !TimeStep
555,1,Heating:Electricity [J] !TimeStep
796,1,Heating:EnergyTransfer:Zone:LIVING ZONE [J] !TimeStep
17,9,Electricity:Facility [J] !Monthly [Value,Min,Day,Hour,Minute,Max,Day,Hour,Minute]
29,9,Electricity:Building [J] !Monthly [Value,Min,Day,Hour,Minute,Max,Day,Hour,Minute]
65,9,InteriorLights:Electricity [J] !Monthly [Value,Min,Day,Hour,Minute,Max,Day,Hour,Minute]
508,9,Electricity:HVAC [J] !Monthly [Value,Min,Day,Hour,Minute,Max,Day,Hour,Minute]
19,11,Electricity:Facility [J] !RunPeriod [Value,Min,Month,Day,Hour,Minute,Max,Month,Day,Hour,Minute]
31,11,Electricity:Building [J] !RunPeriod [Value,Min,Month,Day,Hour,Minute,Max,Month,Day,Hour,Minute]
67,11,InteriorLights:Electricity [J] !RunPeriod [Value,Min,Month,Day,Hour,Minute,Max,Month,Day,Hour,Minute]
510,11,Electricity:HVAC [J] !RunPeriod [Value,Min,Month,Day,Hour,Minute,Max,Month,Day,Hour,Minute]
End of Data Dictionary
1,INTERNATIONAL FALLS INTL AP ANN HTG 99.6% CONDNS DB,  41.98, -87.65,  -6.00, 202.00
2,1, 1,21, 0, 1, 0.00,15.00,WinterDesignDay
505,10343164.594531033
555,10084350.048976954
796,6988140.536535909
2,1, 1,21, 0, 1,15.00,30.00,WinterDesignDay
505,10343164.594531033
555,10084350.048976954
796,6989284.238469565
2,1, 1,21, 0, 1,30.00,45.00,WinterDesignDay
505,10343164.594531033
555,10084350.048976954
796,6988749.186774344
2,1, 1,21, 0, 1,45.00,60.00,WinterDesignDay
505,10343164.594531033
555,10084350.048976954
796,6988132.530200644
2,1, 1,21, 0, 2, 0.00,15.00,WinterDesignDay
505,10343164.594531033
555,10084350.048976954
796,6989234.485871554
2,1, 1,21, 0, 2,15.00,30.00,WinterDesignDay
505,10343164.594531033
555,10084350.048976954
796,6989671.47652064
2,1, 1,21, 0, 2,30.00,45.00,WinterDesignDay
505,10343164.594531033
555,10084350.048976954
796,6989431.80273146
2,1, 1,21, 0, 2,45.00,60.00,WinterDesignDay
505,10343164.594531033
555,10084350.048976954
796,6989152.225869144
2,1, 1,21, 0, 3, 0.00,15.00,WinterDesignDay
505,10343164.594531033
555,10084350.048976954
796,6989320.150167792
2,1, 1,21, 0, 3,15.00,30.00,WinterDesignDay
505,10343164.594531033
555,10084350.048976954
796,6989411.200857186
2,1, 1,21, 0, 3,30.00,45.00,WinterDesignDay
505,10343164.594531033
555,10084350.048976954
796,6989333.978692025
2,1, 1,21, 0, 3,45.00,60.00,WinterDesignDay
505,10343164.594531033
555,10084350.048976954
796,6989225.235579057
2,1, 1,21, 0, 4, 0.00,15.00,WinterDesignDay
505,10343164.594531033
555,10084350.048976954
796,6989404.465934318
2,1, 1,21, 0, 4,15.00,30.00,WinterDesignDay
505,10343164.594531033
555,10084350.048976954
796,6989472.774616807
2,1, 1,21, 0, 4,30.00,45.00,WinterDesignDay
505,10343164.594531033
555,10084350.048976954
796,6989418.7716847565
2,1, 1,21, 0, 4,45.00,60.00,WinterDesignDay
505,10343164.594531033
555,10084350.048976954
796,6989349.156076667
2,1, 1,21, 0, 5, 0.00,15.00,WinterDesignDay
505,10343164.594531033
555,10084350.048976954
796,6987612.5965820085
2,1, 1,21, 0, 5,15.00,30.00,WinterDesignDay
505,10343164.594531033
555,10084350.048976954
796,6987067.767200424
2,1, 1,21, 0, 5,30.00,45.00,WinterDesignDay
505,10343164.594531033
555,10084350.048976954
796,6987230.018222781
2,1, 1,21, 0, 5,45.00,60.00,WinterDesignDay
505,10343164.594531033
555,10084350.048976954
796,6987310.063745182
2,1, 1,21, 0, 6, 0.00,15.00,WinterDesignDay
505,10343164.594531033
555,10084350.048976954
796,6981918.084020673
2,1, 1,21, 0, 6,15.00,30.00,WinterDesignDay
505,10343164.594531033
555,10084350.048976954
796,6979992.042731279
2,1, 1,21, 0, 6,30.00,45.00,WinterDesignDay
505,10343164.594531033
555,10084350.048976954
796,6980393.098403657
2,1, 1,21, 0, 6,45.00,60.00,WinterDesignDay
505,10343164.594531033
555,10084350.048976954
796,6980646.840645485
2,1, 1,21, 0, 7, 0.00,15.00,WinterDesignDay
505,10352874.95167389
555,10084350.048976954
796,6542463.165242884
2,1, 1,21, 0, 7,15.00,30.00,WinterDesignDay
505,10352874.95167389
555,10084350.048976954
796,6541743.068160743
2,1, 1,21, 0, 7,30.00,45.00,WinterDesignDay
505,10352874.95167389
555,10084350.048976954
796,6519171.94684481
2,1, 1,21, 0, 7,45.00,60.00,WinterDesignDay
505,10352874.95167389
555,10084350.048976954
796,6513028.104472603
2,1, 1,21, 0, 8, 0.00,15.00,WinterDesignDay
505,10352874.95167389
555,10084350.048976954
796,6520859.787874608
2,1, 1,21, 0, 8,15.00,30.00,WinterDesignDay
505,10352874.95167389
555,10084350.048976954
796,6523571.112438838
2,1, 1,21, 0, 8,30.00,45.00,WinterDesignDay
505,10352874.95167389
555,10084350.048976954
796,6523908.24238609
2,1, 1,21, 0, 8,45.00,60.00,WinterDesignDay
505,10352874.95167389
555,10084350.048976954
796,6524694.668408095
2,1, 1,21, 0, 9, 0.00,15.00,WinterDesignDay
505,10352874.95167389
555,10084350.048976954
796,6555147.397143351
2,1, 1,21, 0, 9,15.00,30.00,WinterDesignDay
505,10352874.95167389
555,10084350.048976954
796,6558682.734628993
2,1, 1,21, 0, 9,30.00,45.00,WinterDesignDay
505,10352874.95167389
555,10084350.048976954
796,6553158.2026416985
2,1, 1,21, 0, 9,45.00,60.00,WinterDesignDay
505,10352874.95167389
555,10084350.048976954
796,6551766.877776114
2,1, 1,21, 0,10, 0.00,15.00,WinterDesignDay
505,10352874.95167389
555,10084350.048976954
796,6565501.143244313
2,1, 1,21, 0,10,15.00,30.00,WinterDesignDay
505,10352874.95167389
555,10084350.048976954
796,6569935.684138281
2,1, 1,21, 0,10,30.00,45.00,WinterDesignDay
505,10352874.95167389
555,10084350.048976954
796,6570269.341773873
2,1, 1,21, 0,10,45.00,60.00,WinterDesignDay
505,10352874.95167389
555,10084350.048976954
796,6571829.597437022
2,1, 1,21, 0,11, 0.00,15.00,WinterDesignDay
505,10352874.95167389
555,10084350.048976954
796,6575140.85628712
2,1, 1,21, 0,11,15.00,30.00,WinterDesignDay
505,10352874.95167389
555,10084350.048976954
796,6579413.657826049
2,1, 1,21, 0,11,30.00,45.00,WinterDesignDay
505,10352874.95167389
555,10084350.048976954
796,6583307.211707576
2,1, 1,21, 0,11,45.00,60.00,WinterDesignDay
505,10352874.95167389
555,10084350.048976954
796,6587061.532945824
2,1, 1,21, 0,12, 0.00,15.00,WinterDesignDay
505,10352874.95167389
555,10084350.048976954
796,6591423.555858548
2,1, 1,21, 0,12,15.00,30.00,WinterDesignDay
505,10352874.95167389
555,10084350.048976954
796,6596330.644921104
2,1, 1,21, 0,12,30.00,45.00,WinterDesignDay
505,10352874.95167389
555,10084350.048976954
796,6601094.82273494
2,1, 1,21, 0,12,45.00,60.00,WinterDesignDay
505,10352874.95167389
555,10084350.048976954
796,6605749.41769088
2,1, 1,21, 0,13, 0.00,15.00,WinterDesignDay
505,10352874.95167389
555,10084350.048976954
796,6611065.588391416
2,1, 1,21, 0,13,15.00,30.00,WinterDesignDay
505,10352874.95167389
555,10084350.048976954
796,6616610.004624136
2,1, 1,21, 0,13,30.00,45.00,WinterDesignDay
505,10352874.95167389
555,10084350.048976954
796,6621908.552778475
2,1, 1,21, 0,13,45.00,60.00,WinterDesignDay
505,10352874.95167389
555,10084350.048976954
796,6627103.0182476
2,1, 1,21, 0,14, 0.00,15.00,WinterDesignDay
505,10350873.931523817
555,10084350.048976954
796,6704057.6622733725
2,1, 1,21, 0,14,15.00,30.00,WinterDesignDay
505,10343164.594531033
555,10084350.048976954
796,6996447.8180721225
2,1, 1,21, 0,14,30.00,45.00,WinterDesignDay
505,10343164.594531033
555,10084350.048976954
796,7003332.583789851
2,1, 1,21, 0,14,45.00,60.00,WinterDesignDay
505,10343164.594531033
555,10084350.048976954
796,7020833.264132201
2,1, 1,21, 0,15, 0.00,15.00,WinterDesignDay
505,10343164.594531033
555,10084350.048976954
796,7026237.7299772445
2,1, 1,21, 0,15,15.00,30.00,WinterDesignDay
505,10343164.594531033
555,10084350.048976954
796,7024957.322629403
2,1, 1,21, 0,15,30.00,45.00,WinterDesignDay
505,10343164.594531033
555,10084350.048976954
796,7023493.9642296815
2,1, 1,21, 0,15,45.00,60.00,WinterDesignDay
505,10343164.594531033
555,10084350.048976954
796,7023115.865698058
2,1, 1,21, 0,16, 0.00,15.00,WinterDesignDay
505,10343164.594531033
555,10084350.048976954
796,7020534.821549221
2,1, 1,21, 0,16,15.00,30.00,WinterDesignDay
505,10352874.95167389
555,10084350.048976954
796,6606137.02407418
2,1, 1,21, 0,16,30.00,45.00,WinterDesignDay
505,10352874.95167389
555,10084350.048976954
796,6610917.416379625
2,1, 1,21, 0,16,45.00,60.00,WinterDesignDay
505,10352874.95167389
555,10084350.048976954
796,6592532.843960807
2,1, 1,21, 0,17, 0.00,15.00,WinterDesignDay
505,10352874.95167389
555,10084350.048976954
796,6577012.024737269
2,1, 1,21, 0,17,15.00,30.00,WinterDesignDay
505,10352874.95167389
555,10084350.048976954
796,6580152.345129001
2,1, 1,21, 0,17,30.00,45.00,WinterDesignDay
505,10352874.95167389
555,10084350.048976954
796,6589046.219879551
2,1, 1,21, 0,17,45.00,60.00,WinterDesignDay
505,10352874.95167389
555,10084350.048976954
796,6595740.888066136
2,1, 1,21, 0,18, 0.00,15.00,WinterDesignDay
505,10352874.95167389
555,10084350.048976954
796,6577876.318716905
2,1, 1,21, 0,18,15.00,30.00,WinterDesignDay
505,10352874.95167389
555,10084350.048976954
796,6576280.25811121
2,1, 1,21, 0,18,30.00,45.00,WinterDesignDay
505,10352874.95167389
555,10084350.048976954
796,6582783.2708104905
2,1, 1,21, 0,18,45.00,60.00,WinterDesignDay
505,10352874.95167389
555,10084350.048976954
796,6587062.45705988
2,1, 1,21, 0,19, 0.00,15.00,WinterDesignDay
505,10352874.95167389
555,10084350.048976954
796,6565263.264749296
2,1, 1,21, 0,19,15.00,30.00,WinterDesignDay
505,10352803.39671098
555,10084350.048976954
796,6565609.090307795
2,1, 1,21, 0,19,30.00,45.00,WinterDesignDay
505,10343164.594531033
555,10084350.048976954
796,6949216.211286883
2,1, 1,21, 0,19,45.00,60.00,WinterDesignDay
505,10343164.594531033
555,10084350.048976954
796,6953466.683111781
2,1, 1,21, 0,20, 0.00,15.00,WinterDesignDay
505,10343164.594531033
555,10084350.048976954
796,6970867.648533736
2,1, 1,21, 0,20,15.00,30.00,WinterDesignDay
505,10343164.594531033
555,10084350.048976954
796,6976331.928375515
2,1, 1,21, 0,20,30.00,45.00,WinterDesignDay
505,10343164.594531033
555,10084350.048976954
796,6973680.938951638
2,1, 1,21, 0,20,45.00,60.00,WinterDesignDay
505,10352874.95167389
555,10084350.048976954
796,6532885.399238641
2,1, 1,21, 0,21, 0.00,15.00,WinterDesignDay
505,10352874.95167389
555,10084350.048976954
796,6531288.125038194
2,1, 1,21, 0,21,15.00,30.00,WinterDesignDay
505,10352874.95167389
555,10084350.048976954
796,6506716.18369869
2,1, 1,21, 0,21,30.00,45.00,WinterDesignDay
505,10352874.95167389
555,10084350.048976954
796,6498679.243070832
2,1, 1,21, 0,21,45.00,60.00,WinterDesignDay
505,10352874.95167389
555,10084350.048976954
796,6502305.866328199
2,1, 1,21, 0,22, 0.00,15.00,WinterDesignDay
505,10352874.95167389
555,10084350.048976954
796,6508494.927552937
2,1, 1,21, 0,22,15.00,30.00,WinterDesignDay
505,10352874.95167389
555,10084350.048976954
796,6514824.536813079
2,1, 1,21, 0,22,30.00,45.00,WinterDesignDay
505,10352874.95167389
555,10084350.048976954
796,6519289.168762899
2,1, 1,21, 0,22,45.00,60.00,WinterDesignDay
505,10352874.95167389
555,10084350.048976954
796,6523058.251713148
2,1, 1,21, 0,23, 0.00,15.00,WinterDesignDay
505,10352874.95167389
555,10084350.048976954
796,6539103.126062773
2,1, 1,21, 0,23,15.00,30.00,WinterDesignDay
505,10352874.95167389
555,10084350.048976954
796,6549421.257587935
2,1, 1,21, 0,23,30.00,45.00,WinterDesignDay
505,10351797.09055472
555,10084350.048976954
796,6596445.31026013
2,1, 1,21, 0,23,45.00,60.00,WinterDesignDay
505,10343164.594531033
555,10084350.048976954
796,6945981.125434102
2,1, 1,21, 0,24, 0.00,15.00,WinterDesignDay
505,10343164.594531033
555,10084350.048976954
796,6958999.948207519
2,1, 1,21, 0,24,15.00,30.00,WinterDesignDay
505,10343164.594531033
555,10084350.048976954
796,6981216.120155028
2,1, 1,21, 0,24,30.00,45.00,WinterDesignDay
505,10343164.594531033
555,10084350.048976954
796,6987048.033791563
2,1, 1,21, 0,24,45.00,60.00,WinterDesignDay
505,10343164.594531033
555,10084350.048976954
796,6984563.345160285
4,1, 1
17,1104745313.080131,10929936.431095254,21, 4,15,12257707.817926597,21,19,15
29,88231075.81009297,539940.4145963427,21, 4,15,1472141.8073613935,21,19,15
65,10234137.401675869,20913.154638386502,21, 1,15,304191.34019471274,21,20,15
508,993465009.9244605,10343164.594531033,21, 1,15,10352874.95167389,21, 7,15
5,1
19,1104745313.080131,10929936.431095254, 1,21, 4,15,12257707.817926597, 1,21,19,15
31,88231075.81009297,539940.4145963427, 1,21, 4,15,1472141.8073613935, 1,21,19,15
67,10234137.401675869,20913.154638386502, 1,21, 1,15,304191.34019471274, 1,21,20,15
510,993465009.9244605,10343164.594531033, 1,21, 1,15,10352874.95167389, 1,21, 7,15
1,INTERNATIONAL FALLS INTL AP ANN CLG .4% CONDNS DB=>MWB,  41.98, -87.65,  -6.00, 202.00
2,1, 7,21, 0, 1, 0.00,15.00,SummerDesignDay
505,381281.26520687685
555,0.0
796,0.0
2,1, 7,21, 0, 1,15.00,30.00,SummerDesignDay
505,355535.7369849147
555,0.0
796,0.0
2,1, 7,21, 0, 1,30.00,45.00,SummerDesignDay
505,331879.2620245334
555,0.0
796,0.0
2,1, 7,21, 0, 1,45.00,60.00,SummerDesignDay
505,309006.1726649033
555,0.0
796,0.0
2,1, 7,21, 0, 2, 0.00,15.00,SummerDesignDay
505,284937.3958098597
555,0.0
796,0.0
2,1, 7,21, 0, 2,15.00,30.00,SummerDesignDay
505,264709.81312104885
555,0.0
796,0.0
2,1, 7,21, 0, 2,30.00,45.00,SummerDesignDay
505,245151.29853535694
555,0.0
796,0.0
2,1, 7,21, 0, 2,45.00,60.00,SummerDesignDay
505,226608.1582392801
555,0.0
796,0.0
2,1, 7,21, 0, 3, 0.00,15.00,SummerDesignDay
505,208296.58762204356
555,0.0
796,0.0
2,1, 7,21, 0, 3,15.00,30.00,SummerDesignDay
505,191714.6506593164
555,0.0
796,0.0
2,1, 7,21, 0, 3,30.00,45.00,SummerDesignDay
505,175296.69386870845
555,0.0
796,0.0
2,1, 7,21, 0, 3,45.00,60.00,SummerDesignDay
505,159627.78705841547
555,0.0
796,0.0
2,1, 7,21, 0, 4, 0.00,15.00,SummerDesignDay
505,143655.9564942926
555,0.0
796,0.0
2,1, 7,21, 0, 4,15.00,30.00,SummerDesignDay
505,128533.02767495404
555,0.0
796,0.0
2,1, 7,21, 0, 4,30.00,45.00,SummerDesignDay
505,113934.48987981124
555,0.0
796,0.0
2,1, 7,21, 0, 4,45.00,60.00,SummerDesignDay
505,99771.00862684626
555,0.0
796,0.0
2,1, 7,21, 0, 5, 0.00,15.00,SummerDesignDay
505,91182.57471824085
555,0.0
796,0.0
2,1, 7,21, 0, 5,15.00,30.00,SummerDesignDay
505,80516.41925750996
555,0.0
796,0.0
2,1, 7,21, 0, 5,30.00,45.00,SummerDesignDay
505,94962.67162773488
555,0.0
796,0.0
2,1, 7,21, 0, 5,45.00,60.00,SummerDesignDay
505,140063.40808879383
555,0.0
796,0.0
2,1, 7,21, 0, 6, 0.00,15.00,SummerDesignDay
505,229695.23063252325
555,0.0
796,0.0
2,1, 7,21, 0, 6,15.00,30.00,SummerDesignDay
505,315302.18659213476
555,0.0
796,0.0
2,1, 7,21, 0, 6,30.00,45.00,SummerDesignDay
505,390382.5650823325
555,0.0
796,0.0
2,1, 7,21, 0, 6,45.00,60.00,SummerDesignDay
505,464694.8833541495
555,0.0
796,0.0
2,1, 7,21, 0, 7, 0.00,15.00,SummerDesignDay
505,541166.7103110688
555,0.0
796,0.0
2,1, 7,21, 0, 7,15.00,30.00,SummerDesignDay
505,600194.7216709618
555,0.0
796,0.0
2,1, 7,21, 0, 7,30.00,45.00,SummerDesignDay
505,502877.01560572506
555,0.0
796,0.0
2,1, 7,21, 0, 7,45.00,60.00,SummerDesignDay
505,408787.3148746759
555,0.0
796,0.0
2,1, 7,21, 0, 8, 0.00,15.00,SummerDesignDay
505,458837.7090314154
555,0.0
796,0.0
2,1, 7,21, 0, 8,15.00,30.00,SummerDesignDay
505,506486.6323629009
555,0.0
796,0.0
2,1, 7,21, 0, 8,30.00,45.00,SummerDesignDay
505,646113.0991965312
555,0.0
796,0.0
2,1, 7,21, 0, 8,45.00,60.00,SummerDesignDay
505,841991.7784339774
555,0.0
796,0.0
2,1, 7,21, 0, 9, 0.00,15.00,SummerDesignDay
505,836118.6570222899
555,0.0
796,0.0
2,1, 7,21, 0, 9,15.00,30.00,SummerDesignDay
505,871253.8598837316
555,0.0
796,0.0
2,1, 7,21, 0, 9,30.00,45.00,SummerDesignDay
505,906563.6533302867
555,0.0
796,0.0
2,1, 7,21, 0, 9,45.00,60.00,SummerDesignDay
505,940878.3812063946
555,0.0
796,0.0
2,1, 7,21, 0,10, 0.00,15.00,SummerDesignDay
505,953719.3481539467
555,0.0
796,0.0
2,1, 7,21, 0,10,15.00,30.00,SummerDesignDay
505,705077.574615742
555,0.0
796,0.0
2,1, 7,21, 0,10,30.00,45.00,SummerDesignDay
505,729849.8938444124
555,0.0
796,0.0
2,1, 7,21, 0,10,45.00,60.00,SummerDesignDay
505,749420.5657929693
555,0.0
796,0.0
2,1, 7,21, 0,11, 0.00,15.00,SummerDesignDay
505,767370.278587855
555,0.0
796,0.0
2,1, 7,21, 0,11,15.00,30.00,SummerDesignDay
505,904276.2365015647
555,0.0
796,0.0
2,1, 7,21, 0,11,30.00,45.00,SummerDesignDay
505,1061237.5928721218
555,0.0
796,0.0
2,1, 7,21, 0,11,45.00,60.00,SummerDesignDay
505,1076429.3757594211
555,0.0
796,0.0
2,1, 7,21, 0,12, 0.00,15.00,SummerDesignDay
505,1081821.1433123518
555,0.0
796,0.0
2,1, 7,21, 0,12,15.00,30.00,SummerDesignDay
505,1088513.7023981856
555,0.0
796,0.0
2,1, 7,21, 0,12,30.00,45.00,SummerDesignDay
505,1098367.0425881918
555,0.0
796,0.0
2,1, 7,21, 0,12,45.00,60.00,SummerDesignDay
505,1114615.2351064608
555,0.0
796,0.0
2,1, 7,21, 0,13, 0.00,15.00,SummerDesignDay
505,1134776.4813901796
555,0.0
796,0.0
2,1, 7,21, 0,13,15.00,30.00,SummerDesignDay
505,1165516.67999392
555,0.0
796,0.0
2,1, 7,21, 0,13,30.00,45.00,SummerDesignDay
505,911103.1724265483
555,0.0
796,0.0
2,1, 7,21, 0,13,45.00,60.00,SummerDesignDay
505,952893.1972173828
555,0.0
796,0.0
2,1, 7,21, 0,14, 0.00,15.00,SummerDesignDay
505,997351.676277226
555,0.0
796,0.0
2,1, 7,21, 0,14,15.00,30.00,SummerDesignDay
505,1099264.8710552026
555,0.0
796,0.0
2,1, 7,21, 0,14,30.00,45.00,SummerDesignDay
505,1340432.1962062423
555,0.0
796,0.0
2,1, 7,21, 0,14,45.00,60.00,SummerDesignDay
505,1342585.051736376
555,0.0
796,0.0
2,1, 7,21, 0,15, 0.00,15.00,SummerDesignDay
505,1342821.318784745
555,0.0
796,0.0
2,1, 7,21, 0,15,15.00,30.00,SummerDesignDay
505,1343205.76944303
555,0.0
796,0.0
2,1, 7,21, 0,15,30.00,45.00,SummerDesignDay
505,1343641.5702954384
555,0.0
796,0.0
2,1, 7,21, 0,15,45.00,60.00,SummerDesignDay
505,1344100.1631887238
555,0.0
796,0.0
2,1, 7,21, 0,16, 0.00,15.00,SummerDesignDay
505,1341998.655022102
555,0.0
796,0.0
2,1, 7,21, 0,16,15.00,30.00,SummerDesignDay
505,1340077.5337011022
555,0.0
796,0.0
2,1, 7,21, 0,16,30.00,45.00,SummerDesignDay
505,1338016.9357061367
555,0.0
796,0.0
2,1, 7,21, 0,16,45.00,60.00,SummerDesignDay
505,1335761.7832896598
555,0.0
796,0.0
2,1, 7,21, 0,17, 0.00,15.00,SummerDesignDay
505,1332728.1772688576
555,0.0
796,0.0
2,1, 7,21, 0,17,15.00,30.00,SummerDesignDay
505,1333486.2299148408
555,0.0
796,0.0
2,1, 7,21, 0,17,30.00,45.00,SummerDesignDay
505,1333022.8690392256
555,0.0
796,0.0
2,1, 7,21, 0,17,45.00,60.00,SummerDesignDay
505,1327053.8491464744
555,0.0
796,0.0
2,1, 7,21, 0,18, 0.00,15.00,SummerDesignDay
505,1321740.1379609432
555,0.0
796,0.0
2,1, 7,21, 0,18,15.00,30.00,SummerDesignDay
505,1310336.8663136673
555,0.0
796,0.0
2,1, 7,21, 0,18,30.00,45.00,SummerDesignDay
505,1306584.4861594094
555,0.0
796,0.0
2,1, 7,21, 0,18,45.00,60.00,SummerDesignDay
505,1303586.381358948
555,0.0
796,0.0
2,1, 7,21, 0,19, 0.00,15.00,SummerDesignDay
505,1297948.2914161924
555,0.0
796,0.0
2,1, 7,21, 0,19,15.00,30.00,SummerDesignDay
505,1292149.0356349745
555,0.0
796,0.0
2,1, 7,21, 0,19,30.00,45.00,SummerDesignDay
505,1285815.3205475518
555,0.0
796,0.0
2,1, 7,21, 0,19,45.00,60.00,SummerDesignDay
505,1245070.9092104903
555,0.0
796,0.0
2,1, 7,21, 0,20, 0.00,15.00,SummerDesignDay
505,1131261.4370020719
555,0.0
796,0.0
2,1, 7,21, 0,20,15.00,30.00,SummerDesignDay
505,911612.6875955223
555,0.0
796,0.0
2,1, 7,21, 0,20,30.00,45.00,SummerDesignDay
505,711729.9658306139
555,0.0
796,0.0
2,1, 7,21, 0,20,45.00,60.00,SummerDesignDay
505,662561.2413295979
555,0.0
796,0.0
2,1, 7,21, 0,21, 0.00,15.00,SummerDesignDay
505,624231.6011341278
555,0.0
796,0.0
2,1, 7,21, 0,21,15.00,30.00,SummerDesignDay
505,659269.5014886623
555,0.0
796,0.0
2,1, 7,21, 0,21,30.00,45.00,SummerDesignDay
505,816212.7592786269
555,0.0
796,0.0
2,1, 7,21, 0,21,45.00,60.00,SummerDesignDay
505,787245.5302377337
555,0.0
796,0.0
2,1, 7,21, 0,22, 0.00,15.00,SummerDesignDay
505,753564.6567380809
555,0.0
796,0.0
2,1, 7,21, 0,22,15.00,30.00,SummerDesignDay
505,723579.7042515341
555,0.0
796,0.0
2,1, 7,21, 0,22,30.00,45.00,SummerDesignDay
505,695657.0843877532
555,0.0
796,0.0
2,1, 7,21, 0,22,45.00,60.00,SummerDesignDay
505,668991.1389523104
555,0.0
796,0.0
2,1, 7,21, 0,23, 0.00,15.00,SummerDesignDay
505,621871.1455080608
555,0.0
796,0.0
2,1, 7,21, 0,23,15.00,30.00,SummerDesignDay
505,591184.91748851
555,0.0
796,0.0
2,1, 7,21, 0,23,30.00,45.00,SummerDesignDay
505,564564.7872853075
555,0.0
796,0.0
2,1, 7,21, 0,23,45.00,60.00,SummerDesignDay
505,539985.7539955438
555,0.0
796,0.0
2,1, 7,21, 0,24, 0.00,15.00,SummerDesignDay
505,208205.56324979148
555,0.0
796,0.0
2,1, 7,21, 0,24,15.00,30.00,SummerDesignDay
505,181495.63671614943
555,0.0
796,0.0
2,1, 7,21, 0,24,30.00,45.00,SummerDesignDay
505,158735.66429953516
555,0.0
796,0.0
2,1, 7,21, 0,24,45.00,60.00,SummerDesignDay
505,355668.04054477264
555,0.0
796,0.0
4,1, 7
17,174167240.4242442,686542.845191067,21, 4,60,3163336.240745582,21,18,15
29,88231075.81009297,539940.4145963427,21, 4,15,1472141.8073613935,21,19,15
65,10234137.401675869,20913.154638386502,21, 1,15,304191.34019471274,21,20,15
508,72549405.19330765,80516.41925750996,21, 5,30,1344100.1631887238,21,15,60
5,1
19,174167240.4242442,686542.845191067, 7,21, 4,60,3163336.240745582, 7,21,18,15
31,88231075.81009297,539940.4145963427, 7,21, 4,15,1472141.8073613935, 7,21,19,15
67,10234137.401675869,20913.154638386502, 7,21, 1,15,304191.34019471274, 7,21,20,15
510,72549405.19330765,80516.41925750996, 7,21, 5,30,1344100.1631887238, 7,21,15,60
1,ANNUAL,  41.98, -87.65,  -6.00, 202.00
2,1, 1, 1, 0, 1, 0.00,15.00,Sunday
505,1943187.1880147366
555,1735452.059050023
796,1793292.9484893195
2,1, 1, 1, 0, 1,15.00,30.00,Sunday
505,2960264.4191277716
555,2702748.634078753
796,2634831.6673763967
2,1, 1, 1, 0, 1,30.00,45.00,Sunday
505,4014585.53691538
555,3755770.9913613014
796,3405630.353558178
2,1, 1, 1, 0, 1,45.00,60.00,Sunday
505,4925106.525354945
555,4666291.979800867
796,4050903.3744972353
2,1, 1, 1, 0, 2, 0.00,15.00,Sunday
505,5138771.363490868
555,4879956.817936789
796,4226985.3484500125
2,1, 1, 1, 0, 2,15.00,30.00,Sunday
505,5325930.809552571
555,5067116.263998493
796,4377028.584927752
2,1, 1, 1, 0, 2,30.00,45.00,Sunday
505,5491883.568153208
555,5233069.022599129
796,4510991.405906485
2,1, 1, 1, 0, 2,45.00,60.00,Sunday
505,5644837.030085877
555,5386022.484531798
796,4632521.35409512
2,1, 1, 1, 0, 3, 0.00,15.00,Sunday
505,5530646.035386069
555,5271831.489831991
796,4531200.935944329
2,1, 1, 1, 0, 3,15.00,30.00,Sunday
505,5406022.28164848
555,5147207.736094402
796,4423187.999838843
2,1, 1, 1, 0, 3,30.00,45.00,Sunday
505,5277793.265427597
555,5018978.719873519
796,4312062.846565358
2,1, 1, 1, 0, 3,45.00,60.00,Sunday
505,5147455.784194625
555,4888641.238640546
796,4198873.598033029
2,1, 1, 1, 0, 4, 0.00,15.00,Sunday
505,5281063.021730659
555,5022248.4761765795
796,4310166.268368866
2,1, 1, 1, 0, 4,15.00,30.00,Sunday
505,5416275.604217211
555,5157461.058663132
796,4419320.168544734
2,1, 1, 1, 0, 4,30.00,45.00,Sunday
505,5549004.5287773665
555,5290189.983223288
796,4525812.91583043
2,1, 1, 1, 0, 4,45.00,60.00,Sunday
505,5680512.795108
555,5421698.249553921
796,4631220.47362284
2,1, 1, 1, 0, 5, 0.00,15.00,Sunday
505,5726149.354624872
555,5467334.809070793
796,4662485.586905282
2,1, 1, 1, 0, 5,15.00,30.00,Sunday
505,5778252.922507642
555,5519438.376953563
796,4699673.559824328
2,1, 1, 1, 0, 5,30.00,45.00,Sunday
505,5830766.408263657
555,5571951.862709578
796,4737228.160030911
2,1, 1, 1, 0, 5,45.00,60.00,Sunday
505,5882559.56771166
555,5623745.022157581
796,4774114.063271404
2,1, 1, 1, 0, 6, 0.00,15.00,Sunday
505,5767292.305732826
555,5508477.760178747
796,4668258.154178474
2,1, 1, 1, 0, 6,15.00,30.00,Sunday
505,5665051.446117986
555,5406236.900563907
796,4577727.679337007
2,1, 1, 1, 0, 6,30.00,45.00,Sunday
505,5561329.643161689
555,5302515.09760761
796,4486897.89776915
2,1, 1, 1, 0, 6,45.00,60.00,Sunday
505,5454282.687340709
555,5195468.141786631
796,4393472.606914122
2,1, 1, 1, 0, 7, 0.00,15.00,Sunday
505,5346606.906928865
555,5087792.361374786
796,4306601.192186593
2,1, 1, 1, 0, 7,15.00,30.00,Sunday
505,6080375.704624226
555,5811850.801927291
796,4234901.097827483
2,1, 1, 1, 0, 7,30.00,45.00,Sunday
505,5986033.8192009535
555,5717508.916504018
796,4169762.5378059642
2,1, 1, 1, 0, 7,45.00,60.00,Sunday
505,5888619.619397395
555,5620094.716700459
796,4101410.2732908153
2,1, 1, 1, 0, 8, 0.00,15.00,Sunday
505,5919381.503865953
555,5650856.601169017
796,4142796.557177099
2,1, 1, 1, 0, 8,15.00,30.00,Sunday
505,5926977.030043503
555,5658452.127346567
796,4158328.867231068
2,1, 1, 1, 0, 8,30.00,45.00,Sunday
505,5837263.043248929
555,5568738.140551994
796,4088232.698363436
2,1, 1, 1, 0, 8,45.00,60.00,Sunday
505,5705176.048610715
555,5436651.145913779
796,3981227.636259298
2,1, 1, 1, 0, 9, 0.00,15.00,Sunday
505,5860568.046702007
555,5592043.144005071
796,4110660.4880475784
2,1, 1, 1, 0, 9,15.00,30.00,Sunday
505,5863275.301566576
555,5594750.39886964
796,4104056.5597721743
2,1, 1, 1, 0, 9,30.00,45.00,Sunday
505,5859812.732290299
555,5591287.829593363
796,4091517.9417102863
2,1, 1, 1, 0, 9,45.00,60.00,Sunday
505,5856622.059908169
555,5588097.157211234
796,4078599.2501277924
2,1, 1, 1, 0,10, 0.00,15.00,Sunday
505,5914489.884215855
555,5645964.98151892
796,4130075.3954993254
2,1, 1, 1, 0,10,15.00,30.00,Sunday
505,5911063.112728429
555,5642538.210031494
796,4128306.0135675226
2,1, 1, 1, 0,10,30.00,45.00,Sunday
505,5852377.073274297
555,5584781.930445537
796,4138820.022126752
2,1, 1, 1, 0,10,45.00,60.00,Sunday
505,5211122.545104929
555,4952307.999550851
796,4153649.4421441276
2,1, 1, 1, 0,11, 0.00,15.00,Sunday
505,4951022.758129379
555,4692208.2125753
796,3965980.917577363
2,1, 1, 1, 0,11,15.00,30.00,Sunday
505,4677032.380132252
555,4418217.834578174
796,3782797.1958656292
2,1, 1, 1, 0,11,30.00,45.00,Sunday
505,4427084.697052283
555,4168270.151498205
796,3616868.9403373394
2,1, 1, 1, 0,11,45.00,60.00,Sunday
505,4186938.8646594305
555,3928124.3191053523
796,3460616.5220182324
2,1, 1, 1, 0,12, 0.00,15.00,Sunday
505,4299880.496914988
555,4036210.7727894816
796,3253097.10408781
2,1, 1, 1, 0,12,15.00,30.00,Sunday
505,4416085.384387632
555,4147560.481690696
796,3055838.978431766
2,1, 1, 1, 0,12,30.00,45.00,Sunday
505,4128733.3266985267
555,3860208.424001591
796,2859545.5237859883
2,1, 1, 1, 0,12,45.00,60.00,Sunday
505,3839333.595233243
555,3570808.6925363075
796,2660018.5757591315
2,1, 1, 1, 0,13, 0.00,15.00,Sunday
505,3748293.5406167284
555,3479768.637919793
796,2625421.5176901296
2,1, 1, 1, 0,13,15.00,30.00,Sunday
505,3634432.8263296504
555,3365907.923632715
796,2579256.4082492706
2,1, 1, 1, 0,13,30.00,45.00,Sunday
505,3530729.7442512624
555,3262204.841554327
796,2542862.5497624697
2,1, 1, 1, 0,13,45.00,60.00,Sunday
505,3431457.0002711904
555,3162932.0975742545
796,2510837.172996724
2,1, 1, 1, 0,14, 0.00,15.00,Sunday
505,2667858.519725555
555,2406087.046968822
796,2333146.7610906493
2,1, 1, 1, 0,14,15.00,30.00,Sunday
505,2197532.755212797
555,1938718.2096587182
796,2161018.9855967825
2,1, 1, 1, 0,14,30.00,45.00,Sunday
505,2015509.0064171306
555,1756694.460863052
796,2043299.8328724592
2,1, 1, 1, 0,14,45.00,60.00,Sunday
505,1870701.9868649424
555,1611887.4413108637
796,1957686.2003080933
2,1, 1, 1, 0,15, 0.00,15.00,Sunday
505,1856160.8880098811
555,1597346.3424558025
796,1990459.638399873
2,1, 1, 1, 0,15,15.00,30.00,Sunday
505,1855904.186075823
555,1597089.6405217443
796,2035187.9060381302
2,1, 1, 1, 0,15,30.00,45.00,Sunday
505,1794100.9684883896
555,1535286.422934311
796,2025340.8611574792
2,1, 1, 1, 0,15,45.00,60.00,Sunday
505,1700686.547357939
555,1441872.0018038603
796,1987154.7332793558
2,1, 1, 1, 0,16, 0.00,15.00,Sunday
505,1657012.0935453954
555,1398197.5479913168
796,1960776.0007735672
2,1, 1, 1, 0,16,15.00,30.00,Sunday
505,2437847.104674506
555,2169322.2019775705
796,1945370.4876598825
2,1, 1, 1, 0,16,30.00,45.00,Sunday
505,2493255.82986053
555,2224730.927163594
796,2016215.6775111686
2,1, 1, 1, 0,16,45.00,60.00,Sunday
505,2626999.095850804
555,2358474.1931538684
796,2157513.3331037266
2,1, 1, 1, 0,17, 0.00,15.00,Sunday
505,2898174.162009031
555,2629649.259312095
796,2404044.7421175763
2,1, 1, 1, 0,17,15.00,30.00,Sunday
505,3262955.0154042044
555,2994430.1127072684
796,2727592.1356624146
2,1, 1, 1, 0,17,30.00,45.00,Sunday
505,3509335.307615542
555,3240848.0693062516
796,2947252.3648584345
2,1, 1, 1, 0,17,45.00,60.00,Sunday
505,2940143.165452607
555,2681328.619898528
796,3098384.401648922
2,1, 1, 1, 0,18, 0.00,15.00,Sunday
505,3009439.361624321
555,2750624.816070243
796,3122668.418745118
2,1, 1, 1, 0,18,15.00,30.00,Sunday
505,3173903.4438812267
555,2915088.8983271485
796,3224435.763252433
2,1, 1, 1, 0,18,30.00,45.00,Sunday
505,3336216.7817394994
555,3077402.2361854212
796,3324558.762632794
2,1, 1, 1, 0,18,45.00,60.00,Sunday
505,3494660.004059669
555,3235845.4585055904
796,3421948.842376506
2,1, 1, 1, 0,19, 0.00,15.00,Sunday
505,3154904.247247915
555,2896089.7016938357
796,3147585.578546022
2,1, 1, 1, 0,19,15.00,30.00,Sunday
505,2909714.6192675997
555,2650900.0737135205
796,2958911.9416944184
2,1, 1, 1, 0,19,30.00,45.00,Sunday
505,3524374.887164176
555,3255849.98446724
796,2773486.7273321133
2,1, 1, 1, 0,19,45.00,60.00,Sunday
505,3276516.0310488604
555,3007991.128351925
796,2590898.5351759167
2,1, 1, 1, 0,20, 0.00,15.00,Sunday
505,3303556.6329197404
555,3035031.7302228045
796,2599363.595112159
2,1, 1, 1, 0,20,15.00,30.00,Sunday
505,3345027.2651105626
555,3076502.362413627
796,2616558.536431964
2,1, 1, 1, 0,20,30.00,45.00,Sunday
505,3386159.5438072225
555,3117634.641110287
796,2631991.118987111
2,1, 1, 1, 0,20,45.00,60.00,Sunday
505,3425246.093840915
555,3156721.1911439793
796,2645513.3810743033
2,1, 1, 1, 0,21, 0.00,15.00,Sunday
505,3495639.0718666296
555,3227114.169169694
796,2708023.1068217587
2,1, 1, 1, 0,21,15.00,30.00,Sunday
505,3573404.6734826127
555,3304879.7707856772
796,2774157.327094665