Program Version,EnergyPlus, Version 22.1.0-ed759b17ee, YMD=2025.02.07 10:25
1,5,Environment Title[],Latitude[deg],Longitude[deg],Time Zone[],Elevation[m]
2,8,Day of Simulation[],Month[],Day of Month[],DST Indicator[1=yes 0=no],Hour[],StartMinute[],EndMinute[],DayType
3,5,Cumulative Day of Simulation[],Month[],Day of Month[],DST Indicator[1=yes 0=no],DayType  ! When Daily Meters Requested
4,2,Cumulative Days of Simulation[],Month[]  ! When Monthly Meters Requested
5,1,Cumulative Days of Simulation[] ! When Run Period Meters Requested
6,1,Calendar Year of Simulation[] ! When Annual Meters Requested
505,1,Electricity:HVAC [J] !TimeStep
555,1,Heating:Electricity [J] !TimeStep
796,1,Heating:EnergyTransfer:Zone:LIVING ZONE [J] !TimeStep
17,9,Electricity:Facility [J] !Monthly [Value,Min,Day,Hour,Minute,Max,Day,Hour,Minute]
29,9,Electricity:Building [J] !Monthly [Value,Min,Day,Hour,Minute,Max,Day,Hour,Minute]
65,9,InteriorLights:Electricity [J] !Monthly [Value,Min,Day,Hour,Minute,Max,Day,Hour,Minute]
508,9,Electricity:HVAC [J] !Monthly [Value,Min,Day,Hour,Minute,Max,Day,Hour,Minute]
19,11,Electricity:Facility [J] !RunPeriod [Value,Min,Month,Day,Hour,Minute,Max,Month,Day,Hour,Minute]
31,11,Electricity:Building [J] !RunPeriod [Value,Min,Month,Day,Hour,Minute,Max,Month,Day,Hour,Minute]
67,11,InteriorLights:Electricity [J] !RunPeriod [Value,Min,Month,Day,Hour,Minute,Max,Month,Day,Hour,Minute]
510,11,Electricity:HVAC [J] !RunPeriod [Value,Min,Month,Day,Hour,Minute,Max,Month,Day,Hour,Minute]
End of Data Dictionary
1,INTERNATIONAL FALLS INTL AP ANN HTG 99.6% CONDNS DB,  41.98, -87.65,  -6.00, 202.00
2,1, 1,21, 0, 1, 0.00,15.00,WinterDesignDay
505,10343164.594531033
555,10084350.048976954
796,6988140.536535909
2,1, 1,21, 0, 1,15.00,30.00,WinterDesignDay
505,10343164.594531033
555,10084350.048976954
796,6989284.238469565
2,1, 1,21, 0, 1,30.00,45.00,WinterDesignDay
505,10343164.594531033
555,10084350.048976954
796,6988749.186774344
2,1, 1,21, 0, 1,45.00,60.00,WinterDesignDay
505,10343164.594531033
555,10084350.048976954
796,6988132.530200644
2,1, 1,21, 0, 2, 0.00,15.00,WinterDesignDay
505,10343164.594531033
555,10084350.048976954
796,6989234.485871554
2,1, 1,21, 0, 2,15.00,30.00,WinterDesignDay
505,10343164.594531033
555,10084350.048976954
796,6989671.47652064
2,1, 1,21, 0, 2,30.00,45.00,WinterDesignDay
505,10343164.594531033
555,10084350.048976954
796,6989431.80273146
2,1, 1,21, 0, 2,45.00,60.00,WinterDesignDay
505,10343164.594531033
555,10084350.048976954
796,6989152.225869144
2,1, 1,21, 0, 3, 0.00,15.00,WinterDesignDay
505,10343164.594531033
555,10084350.048976954
796,6989320.150167792
2,1, 1,21, 0, 3,15.00,30.00,WinterDesignDay
505,10343164.594531033
555,10084350.048976954
796,6989411.200857186
2,1, 1,21, 0, 3,30.00,45.00,WinterDesignDay
505,10343164.594531033
555,10084350.048976954
796,6989333.978692025
2,1, 1,21, 0, 3,45.00,60.00,WinterDesignDay
505,10343164.594531033
555,10084350.048976954
796,6989225.235579057
2,1, 1,21, 0, 4, 0.00,15.00,WinterDesignDay
505,10343164.594531033
555,10084350.048976954
796,6989404.465934318
2,1, 1,21, 0, 4,15.00,30.00,WinterDesignDay
505,10343164.594531033
555,10084350.048976954
796,6989472.774616807
2,1, 1,21, 0, 4,30.00,45.00,WinterDesignDay
505,10343164.594531033
555,10084350.048976954
796,6989418.7716847565
2,1, 1,21, 0, 4,45.00,60.00,WinterDesignDay
505,10343164.594531033
555,10084350.048976954
796,6989349.156076667
2,1, 1,21, 0, 5, 0.00,15.00,WinterDesignDay
505,10343164.594531033
555,10084350.048976954
796,6987612.5965820085
2,1, 1,21, 0, 5,15.00,30.00,WinterDesignDay
505,10343164.594531033
555,10084350.048976954
796,6987067.767200424
2,1, 1,21, 0, 5,30.00,45.00,WinterDesignDay
505,10343164.594531033
555,10084350.048976954
796,6987230.018222781
2,1, 1,21, 0, 5,45.00,60.00,WinterDesignDay
505,10343164.594531033
555,10084350.048976954
796,6987310.063745182
2,1, 1,21, 0, 6, 0.00,15.00,WinterDesignDay
505,10343164.594531033
555,10084350.048976954
796,6981918.084020673
2,1, 1,21, 0, 6,15.00,30.00,WinterDesignDay
505,10343164.594531033
555,10084350.048976954
796,6979992.042731279
2,1, 1,21, 0, 6,30.00,45.00,WinterDesignDay
505,10343164.594531033
555,10084350.048976954
796,6980393.098403657
2,1, 1,21, 0, 6,45.00,60.00,WinterDesignDay
505,10343164.594531033
555,10084350.048976954
796,6980646.840645485
2,1, 1,21, 0, 7, 0.00,15.00,WinterDesignDay
505,10352874.95167389
555,10084350.048976954
796,6542463.165242884
2,1, 1,21, 0, 7,15.00,30.00,WinterDesignDay
505,10352874.95167389
555,10084350.048976954
796,6541743.068160743
2,1, 1,21, 0, 7,30.00,45.00,WinterDesignDay
505,10352874.95167389
555,10084350.048976954
796,6519171.94684481
2,1, 1,21, 0, 7,45.00,60.00,WinterDesignDay
505,10352874.95167389
555,10084350.048976954
796,6513028.104472603
2,1, 1,21, 0, 8, 0.00,15.00,WinterDesignDay
505,10352874.95167389
555,10084350.048976954
796,6520859.787874608
2,1, 1,21, 0, 8,15.00,30.00,WinterDesignDay
505,10352874.95167389
555,10084350.048976954
796,6523571.112438838
2,1, 1,21, 0, 8,30.00,45.00,WinterDesignDay
505,10352874.95167389
555,10084350.048976954
796,6523908.24238609
2,1, 1,21, 0, 8,45.00,60.00,WinterDesignDay
505,10352874.95167389
555,10084350.048976954
796,6524694.668408095
2,1, 1,21, 0, 9, 0.00,15.00,WinterDesignDay
505,10352874.95167389
555,10084350.048976954
796,6555147.397143351
2,1, 1,21, 0, 9,15.00,30.00,WinterDesignDay
505,10352874.95167389
555,10084350.048976954
796,6558682.734628993
2,1, 1,21, 0, 9,30.00,45.00,WinterDesignDay
505,10352874.95167389
555,10084350.048976954
796,6553158.2026416985
2,1, 1,21, 0, 9,45.00,60.00,WinterDesignDay
505,10352874.95167389
555,10084350.048976954
796,6551766.877776114
2,1, 1,21, 0,10, 0.00,15.00,WinterDesignDay
505,10352874.95167389
555,10084350.048976954
796,6565501.143244313
2,1, 1,21, 0,10,15.00,30.00,WinterDesignDay
505,10352874.95167389
555,10084350.048976954
796,6569935.684138281
2,1, 1,21, 0,10,30.00,45.00,WinterDesignDay
505,10352874.95167389
555,10084350.048976954
796,6570269.341773873
2,1, 1,21, 0,10,45.00,60.00,WinterDesignDay
505,10352874.95167389
555,10084350.048976954
796,6571829.597437022
2,1, 1,21, 0,11, 0.00,15.00,WinterDesignDay
505,10352874.95167389
555,10084350.048976954
796,6575140.85628712
2,1, 1,21, 0,11,15.00,30.00,WinterDesignDay
505,10352874.95167389
555,10084350.048976954
796,6579413.657826049
2,1, 1,21, 0,11,30.00,45.00,WinterDesignDay
505,10352874.95167389
555,10084350.048976954
796,6583307.211707576
2,1, 1,21, 0,11,45.00,60.00,WinterDesignDay
505,10352874.95167389
555,10084350.048976954
796,6587061.532945824
2,1, 1,21, 0,12, 0.00,15.00,WinterDesignDay
505,10352874.95167389
555,10084350.048976954
796,6591423.555858548
2,1, 1,21, 0,12,15.00,30.00,WinterDesignDay
505,10352874.95167389
555,10084350.048976954
796,6596330.644921104
2,1, 1,21, 0,12,30.00,45.00,WinterDesignDay
505,10352874.95167389
555,10084350.048976954
796,6601094.82273494
2,1, 1,21, 0,12,45.00,60.00,WinterDesignDay
505,10352874.95167389
555,10084350.048976954
796,6605749.41769088
2,1, 1,21, 0,13, 0.00,15.00,WinterDesignDay
505,10352874.95167389
555,10084350.048976954
796,6611065.588391416
2,1, 1,21, 0,13,15.00,30.00,WinterDesignDay
505,10352874.95167389
555,10084350.048976954
796,6616610.004624136
2,1, 1,21, 0,13,30.00,45.00,WinterDesignDay
505,10352874.95167389
555,10084350.048976954
796,6621908.552778475
2,1, 1,21, 0,13,45.00,60.00,WinterDesignDay
505,10352874.95167389
555,10084350.048976954
796,6627103.0182476
2,1, 1,21, 0,14, 0.00,15.00,WinterDesignDay
505,10350873.931523817
555,10084350.048976954
796,6704057.6622733725
2,1, 1,21, 0,14,15.00,30.00,WinterDesignDay
505,10343164.594531033
555,10084350.048976954
796,6996447.8180721225
2,1, 1,21, 0,14,30.00,45.00,WinterDesignDay
505,10343164.594531033
555,10084350.048976954
796,7003332.583789851
2,1, 1,21, 0,14,45.00,60.00,WinterDesignDay
505,10343164.594531033
555,10084350.048976954
796,7020833.264132201
2,1, 1,21, 0,15, 0.00,15.00,WinterDesignDay
505,10343164.594531033
555,10084350.048976954
796,7026237.7299772445
2,1, 1,21, 0,15,15.00,30.00,WinterDesignDay
505,10343164.594531033
555,10084350.048976954
796,7024957.322629403
2,1, 1,21, 0,15,30.00,45.00,WinterDesignDay
505,10343164.594531033
555,10084350.048976954
796,7023493.9642296815
2,1, 1,21, 0,15,45.00,60.00,WinterDesignDay
505,10343164.594531033
555,10084350.048976954
796,7023115.865698058
2,1, 1,21, 0,16, 0.00,15.00,WinterDesignDay
505,10343164.594531033
555,10084350.048976954
796,7020534.821549221
2,1, 1,21, 0,16,15.00,30.00,WinterDesignDay
505,10352874.95167389
555,10084350.048976954
796,6606137.02407418
2,1, 1,21, 0,16,30.00,45.00,WinterDesignDay
505,10352874.95167389
555,10084350.048976954
796,6610917.416379625
2,1, 1,21, 0,16,45.00,60.00,WinterDesignDay
505,10352874.95167389
555,10084350.048976954
796,6592532.843960807
2,1, 1,21, 0,17, 0.00,15.00,WinterDesignDay
505,10352874.95167389
555,10084350.048976954
796,6577012.024737269
2,1, 1,21, 0,17,15.00,30.00,WinterDesignDay
505,10352874.95167389
555,10084350.048976954
796,6580152.345129001
2,1, 1,21, 0,17,30.00,45.00,WinterDesignDay
505,10352874.95167389
555,10084350.048976954
796,6589046.219879551
2,1, 1,21, 0,17,45.00,60.00,WinterDesignDay
505,10352874.95167389
555,10084350.048976954
796,6595740.888066136
2,1, 1,21, 0,18, 0.00,15.00,WinterDesignDay
505,10352874.95167389
555,10084350.048976954
796,6577876.318716905
2,1, 1,21, 0,18,15.00,30.00,WinterDesignDay
505,10352874.95167389
555,10084350.048976954
796,6576280.25811121
2,1, 1,21, 0,18,30.00,45.00,WinterDesignDay
505,10352874.95167389
555,10084350.048976954
796,6582783.2708104905
2,1, 1,21, 0,18,45.00,60.00,WinterDesignDay
505,10352874.95167389
555,10084350.048976954
796,6587062.45705988
2,1, 1,21, 0,19, 0.00,15.00,WinterDesignDay
505,10352874.95167389
555,10084350.048976954
796,6565263.264749296
2,1, 1,21, 0,19,15.00,30.00,WinterDesignDay
505,10352803.39671098
555,10084350.048976954
796,6565609.090307795
2,1, 1,21, 0,19,30.00,45.00,WinterDesignDay
505,10343164.594531033
555,10084350.048976954
796,6949216.211286883
2,1, 1,21, 0,19,45.00,60.00,WinterDesignDay
505,10343164.594531033
555,10084350.048976954
796,6953466.683111781
2,1, 1,21, 0,20, 0.00,15.00,WinterDesignDay
505,10343164.594531033
555,10084350.048976954
796,6970867.648533736
2,1, 1,21, 0,20,15.00,30.00,WinterDesignDay
505,10343164.594531033
555,10084350.048976954
796,6976331.928375515
2,1, 1,21, 0,20,30.00,45.00,WinterDesignDay
505,10343164.594531033
555,10084350.048976954
796,6973680.938951638
2,1, 1,21, 0,20,45.00,60.00,WinterDesignDay
505,10352874.95167389
555,10084350.048976954
796,6532885.399238641
2,1, 1,21, 0,21, 0.00,15.00,WinterDesignDay
505,10352874.95167389
555,10084350.048976954
796,6531288.125038194
2,1, 1,21, 0,21,15.00,30.00,WinterDesignDay
505,10352874.95167389
555,10084350.048976954
796,6506716.18369869
2,1, 1,21, 0,21,30.00,45.00,WinterDesignDay
505,10352874.95167389
555,10084350.048976954
796,6498679.243070832
2,1, 1,21, 0,21,45.00,60.00,WinterDesignDay
505,10352874.95167389
555,10084350.048976954
796,6502305.866328199
2,1, 1,21, 0,22, 0.00,15.00,WinterDesignDay
505,10352874.95167389
555,10084350.048976954
796,6508494.927552937
2,1, 1,21, 0,22,15.00,30.00,WinterDesignDay
505,10352874.95167389
555,10084350.048976954
796,6514824.536813079
2,1, 1,21, 0,22,30.00,45.00,WinterDesignDay
505,10352874.95167389
555,10084350.048976954
796,6519289.168762899
2,1, 1,21, 0,22,45.00,60.00,WinterDesignDay
505,10352874.95167389
555,10084350.048976954
796,6523058.251713148
2,1, 1,21, 0,23, 0.00,15.00,WinterDesignDay
505,10352874.95167389
555,10084350.048976954
796,6539103.126062773
2,1, 1,21, 0,23,15.00,30.00,WinterDesignDay
505,10352874.95167389
555,10084350.048976954
796,6549421.257587935
2,1, 1,21, 0,23,30.00,45.00,WinterDesignDay
505,10351797.09055472
555,10084350.048976954
796,6596445.31026013
2,1, 1,21, 0,23,45.00,60.00,WinterDesignDay
505,10343164.594531033
555,10084350.048976954
796,6945981.125434102
2,1, 1,21, 0,24, 0.00,15.00,WinterDesignDay
505,10343164.594531033
555,10084350.048976954
796,6958999.948207519
2,1, 1,21, 0,24,15.00,30.00,WinterDesignDay
505,10343164.594531033
555,10084350.048976954
796,6981216.120155028
2,1, 1,21, 0,24,30.00,45.00,WinterDesignDay
505,10343164.594531033
555,10084350.048976954
796,6987048.033791563
2,1, 1,21, 0,24,45.00,60.00,WinterDesignDay
505,10343164.594531033
555,10084350.048976954
796,6984563.345160285
4,1, 1
17,1104745313.080131,10929936.431095254,21, 4,15,12257707.817926597,21,19,15
29,88231075.81009297,539940.4145963427,21, 4,15,1472141.8073613935,21,19,15
65,10234137.401675869,20913.154638386502,21, 1,15,304191.34019471274,21,20,15
508,993465009.9244605,10343164.594531033,21, 1,15,10352874.95167389,21, 7,15
5,1
19,1104745313.080131,10929936.431095254, 1,21, 4,15,12257707.817926597, 1,21,19,15
31,88231075.81009297,539940.4145963427, 1,21, 4,15,1472141.8073613935, 1,21,19,15
67,10234137.401675869,20913.154638386502, 1,21, 1,15,304191.34019471274, 1,21,20,15
510,993465009.9244605,10343164.594531033, 1,21, 1,15,10352874.95167389, 1,21, 7,15
1,INTERNATIONAL FALLS INTL AP ANN CLG .4% CONDNS DB=>MWB,  41.98, -87.65,  -6.00, 202.00
2,1, 7,21, 0, 1, 0.00,15.00,SummerDesignDay
505,381281.26520687685
555,0.0
796,0.0
2,1, 7,21, 0, 1,15.00,30.00,SummerDesignDay
505,355535.7369849147
555,0.0
796,0.0
2,1, 7,21, 0, 1,30.00,45.00,SummerDesignDay
505,331879.2620245334
555,0.0
796,0.0
2,1, 7,21, 0, 1,45.00,60.00,SummerDesignDay
505,309006.1726649033
555,0.0
796,0.0
2,1, 7,21, 0, 2, 0.00,15.00,SummerDesignDay
505,284937.3958098597
555,0.0
796,0.0
2,1, 7,21, 0, 2,15.00,30.00,SummerDesignDay
505,264709.81312104885
555,0.0
796,0.0
2,1, 7,21, 0, 2,30.00,45.00,SummerDesignDay
505,245151.29853535694
555,0.0
796,0.0
2,1, 7,21, 0, 2,45.00,60.00,SummerDesignDay
505,226608.1582392801
555,0.0
796,0.0
2,1, 7,21, 0, 3, 0.00,15.00,SummerDesignDay
505,208296.58762204356
555,0.0
796,0.0
2,1, 7,21, 0, 3,15.00,30.00,SummerDesignDay
505,191714.6506593164
555,0.0
796,0.0
2,1, 7,21, 0, 3,30.00,45.00,SummerDesignDay
505,175296.69386870845
555,0.0
796,0.0
2,1, 7,21, 0, 3,45.00,60.00,SummerDesignDay
505,159627.78705841547
555,0.0
796,0.0
2,1, 7,21, 0, 4, 0.00,15.00,SummerDesignDay
505,143655.9564942926
555,0.0
796,0.0
2,1, 7,21, 0, 4,15.00,30.00,SummerDesignDay
505,128533.02767495404
555,0.0
796,0.0
2,1, 7,21, 0, 4,30.00,45.00,SummerDesignDay
505,113934.48987981124
555,0.0
796,0.0
2,1, 7,21, 0, 4,45.00,60.00,SummerDesignDay
505,99771.00862684626
555,0.0
796,0.0
2,1, 7,21, 0, 5, 0.00,15.00,SummerDesignDay
505,91182.57471824085
555,0.0
796,0.0
2,1, 7,21, 0, 5,15.00,30.00,SummerDesignDay
505,80516.41925750996
555,0.0
796,0.0
2,1, 7,21, 0, 5,30.00,45.00,SummerDesignDay
505,94962.67162773488
555,0.0
796,0.0
2,1, 7,21, 0, 5,45.00,60.00,SummerDesignDay
505,140063.40808879383
555,0.0
796,0.0
2,1, 7,21, 0, 6, 0.00,15.00,SummerDesignDay
505,229695.23063252325
555,0.0
796,0.0
2,1, 7,21, 0, 6,15.00,30.00,SummerDesignDay
505,315302.18659213476
555,0.0
796,0.0
2,1, 7,21, 0, 6,30.00,45.00,SummerDesignDay
505,390382.5650823325
555,0.0
796,0.0
2,1, 7,21, 0, 6,45.00,60.00,SummerDesignDay
505,464694.8833541495
555,0.0
796,0.0
2,1, 7,21, 0, 7, 0.00,15.00,SummerDesignDay
505,541166.7103110688
555,0.0
796,0.0
2,1, 7,21, 0, 7,15.00,30.00,SummerDesignDay
505,600194.7216709618
555,0.0
796,0.0
2,1, 7,21, 0, 7,30.00,45.00,SummerDesignDay
505,502877.01560572506
555,0.0
796,0.0
2,1, 7,21, 0, 7,45.00,60.00,SummerDesignDay
505,408787.3148746759
555,0.0
796,0.0
2,1, 7,21, 0, 8, 0.00,15.00,SummerDesignDay
505,458837.7090314154
555,0.0
796,0.0
2,1, 7,21, 0, 8,15.00,30.00,SummerDesignDay
505,506486.6323629009
555,0.0
796,0.0
2,1, 7,21, 0, 8,30.00,45.00,SummerDesignDay
505,646113.0991965312
555,0.0
796,0.0
2,1, 7,21, 0, 8,45.00,60.00,SummerDesignDay
505,841991.7784339774
555,0.0
796,0.0
2,1, 7,21, 0, 9, 0.00,15.00,SummerDesignDay
505,836118.6570222899
555,0.0
796,0.0
2,1, 7,21, 0, 9,15.00,30.00,SummerDesignDay
505,871253.8598837316
555,0.0
796,0.0
2,1, 7,21, 0, 9,30.00,45.00,SummerDesignDay
505,906563.6533302867
555,0.0
796,0.0
2,1, 7,21, 0, 9,45.00,60.00,SummerDesignDay
505,940878.3812063946
555,0.0
796,0.0
2,1, 7,21, 0,10, 0.00,15.00,SummerDesignDay
505,953719.3481539467
555,0.0
796,0.0
2,1, 7,21, 0,10,15.00,30.00,SummerDesignDay
505,705077.574615742
555,0.0
796,0.0
2,1, 7,21, 0,10,30.00,45.00,SummerDesignDay
505,729849.8938444124
555,0.0
796,0.0
2,1, 7,21, 0,10,45.00,60.00,SummerDesignDay
505,749420.5657929693
555,0.0
796,0.0
2,1, 7,21, 0,11, 0.00,15.00,SummerDesignDay
505,767370.278587855
555,0.0
796,0.0
2,1, 7,21, 0,11,15.00,30.00,SummerDesignDay
505,904276.2365015647
555,0.0
796,0.0
2,1, 7,21, 0,11,30.00,45.00,SummerDesignDay
505,1061237.5928721218
555,0.0
796,0.0
2,1, 7,21, 0,11,45.00,60.00,SummerDesignDay
505,1076429.3757594211
555,0.0
796,0.0
2,1, 7,21, 0,12, 0.00,15.00,SummerDesignDay
505,1081821.1433123518
555,0.0
796,0.0
2,1, 7,21, 0,12,15.00,30.00,SummerDesignDay
505,1088513.7023981856
555,0.0
796,0.0
2,1, 7,21, 0,12,30.00,45.00,SummerDesignDay
505,1098367.0425881918
555,0.0
796,0.0
2,1, 7,21, 0,12,45.00,60.00,SummerDesignDay
505,1114615.2351064608
555,0.0
796,0.0
2,1, 7,21, 0,13, 0.00,15.00,SummerDesignDay
505,1134776.4813901796
555,0.0
796,0.0
2,1, 7,21, 0,13,15.00,30.00,SummerDesignDay
505,1165516.67999392
555,0.0
796,0.0
2,1, 7,21, 0,13,30.00,45.00,SummerDesignDay
505,911103.1724265483
555,0.0
796,0.0
2,1, 7,21, 0,13,45.00,60.00,SummerDesignDay
505,952893.1972173828
555,0.0
796,0.0
2,1, 7,21, 0,14, 0.00,15.00,SummerDesignDay
505,997351.676277226
555,0.0
796,0.0
2,1, 7,21, 0,14,15.00,30.00,SummerDesignDay
505,1099264.8710552026
555,0.0
796,0.0
2,1, 7,21, 0,14,30.00,45.00,SummerDesignDay
505,1340432.1962062423
555,0.0
796,0.0
2,1, 7,21, 0,14,45.00,60.00,SummerDesignDay
505,1342585.051736376
555,0.0
796,0.0
2,1, 7,21, 0,15, 0.00,15.00,SummerDesignDay
505,1342821.318784745
555,0.0
796,0.0
2,1, 7,21, 0,15,15.00,30.00,SummerDesignDay
505,1343205.76944303
555,0.0
796,0.0
2,1, 7,21, 0,15,30.00,45.00,SummerDesignDay
505,1343641.5702954384
555,0.0
796,0.0
2,1, 7,21, 0,15,45.00,60.00,SummerDesignDay
505,1344100.1631887238
555,0.0
796,0.0
2,1, 7,21, 0,16, 0.00,15.00,SummerDesignDay
505,1341998.655022102
555,0.0
796,0.0
2,1, 7,21, 0,16,15.00,30.00,SummerDesignDay
505,1340077.5337011022
555,0.0
796,0.0
2,1, 7,21, 0,16,30.00,45.00,SummerDesignDay
505,1338016.9357061367
555,0.0
796,0.0
2,1, 7,21, 0,16,45.00,60.00,SummerDesignDay
505,1335761.7832896598
555,0.0
796,0.0
2,1, 7,21, 0,17, 0.00,15.00,SummerDesignDay
505,1332728.1772688576
555,0.0
796,0.0
2,1, 7,21, 0,17,15.00,30.00,SummerDesignDay
505,1333486.2299148408
555,0.0
796,0.0
2,1, 7,21, 0,17,30.00,45.00,SummerDesignDay
505,1333022.8690392256
555,0.0
796,0.0
2,1, 7,21, 0,17,45.00,60.00,SummerDesignDay
505,1327053.8491464744
555,0.0
796,0.0
2,1, 7,21, 0,18, 0.00,15.00,SummerDesignDay
505,1321740.1379609432
555,0.0
796,0.0
2,1, 7,21, 0,18,15.00,30.00,SummerDesignDay
505,1310336.8663136673
555,0.0
796,0.0
2,1, 7,21, 0,18,30.00,45.00,SummerDesignDay
505,1306584.4861594094
555,0.0
796,0.0
2,1, 7,21, 0,18,45.00,60.00,SummerDesignDay
505,1303586.381358948
555,0.0
796,0.0
2,1, 7,21, 0,19, 0.00,15.00,SummerDesignDay
505,1297948.2914161924
555,0.0
796,0.0
2,1, 7,21, 0,19,15.00,30.00,SummerDesignDay
505,1292149.0356349745
555,0.0
796,0.0
2,1, 7,21, 0,19,30.00,45.00,SummerDesignDay
505,1285815.3205475518
555,0.0
796,0.0
2,1, 7,21, 0,19,45.00,60.00,SummerDesignDay
505,1245070.9092104903
555,0.0
796,0.0
2,1, 7,21, 0,20, 0.00,15.00,SummerDesignDay
505,1131261.4370020719
555,0.0
796,0.0
2,1, 7,21, 0,20,15.00,30.00,SummerDesignDay
505,911612.6875955223
555,0.0
796,0.0
2,1, 7,21, 0,20,30.00,45.00,SummerDesignDay
505,711729.9658306139
555,0.0
796,0.0
2,1, 7,21, 0,20,45.00,60.00,SummerDesignDay
505,662561.2413295979
555,0.0
796,0.0
2,1, 7,21, 0,21, 0.00,15.00,SummerDesignDay
505,624231.6011341278
555,0.0
796,0.0
2,1, 7,21, 0,21,15.00,30.00,SummerDesignDay
505,659269.5014886623
555,0.0
796,0.0
2,1, 7,21, 0,21,30.00,45.00,SummerDesignDay
505,816212.7592786269
555,0.0
796,0.0
2,1, 7,21, 0,21,45.00,60.00,SummerDesignDay
505,787245.5302377337
555,0.0
796,0.0
2,1, 7,21, 0,22, 0.00,15.00,SummerDesignDay
505,753564.6567380809
555,0.0
796,0.0
2,1, 7,21, 0,22,15.00,30.00,SummerDesignDay
505,723579.7042515341
555,0.0
796,0.0
2,1, 7,21, 0,22,30.00,45.00,SummerDesignDay
505,695657.0843877532
555,0.0
796,0.0
2,1, 7,21, 0,22,45.00,60.00,SummerDesignDay
505,668991.1389523104
555,0.0
796,0.0
2,1, 7,21, 0,23, 0.00,15.00,SummerDesignDay
505,621871.1455080608
555,0.0
796,0.0
2,1, 7,21, 0,23,15.00,30.00,SummerDesignDay
505,591184.91748851
555,0.0
796,0.0
2,1, 7,21, 0,23,30.00,45.00,SummerDesignDay
505,564564.7872853075
555,0.0
796,0.0
2,1, 7,21, 0,23,45.00,60.00,SummerDesignDay
505,539985.7539955438
555,0.0
796,0.0
2,1, 7,21, 0,24, 0.00,15.00,SummerDesignDay
505,208205.56324979148
555,0.0
796,0.0
2,1, 7,21, 0,24,15.00,30.00,SummerDesignDay
505,181495.63671614943
555,0.0
796,0.0
2,1, 7,21, 0,24,30.00,45.00,SummerDesignDay
505,158735.66429953516
555,0.0
796,0.0
2,1, 7,21, 0,24,45.00,60.00,SummerDesignDay
505,355668.04054477264
555,0.0
796,0.0
4,1, 7
17,174167240.4242442,686542.845191067,21, 4,60,3163336.240745582,21,18,15
29,88231075.81009297,539940.4145963427,21, 4,15,1472141.8073613935,21,19,15
65,10234137.401675869,20913.154638386502,21, 1,15,304191.34019471274,21,20,15
508,72549405.19330765,80516.41925750996,21, 5,30,1344100.1631887238,21,15,60
5,1
19,174167240.4242442,686542.845191067, 7,21, 4,60,3163336.240745582, 7,21,18,15
31,88231075.81009297,539940.4145963427, 7,21, 4,15,1472141.8073613935, 7,21,19,15
67,10234137.401675869,20913.154638386502, 7,21, 1,15,304191.34019471274, 7,21,20,15
510,72549405.19330765,80516.41925750996, 7,21, 5,30,1344100.1631887238, 7,21,15,60
1,ANNUAL,  41.98, -87.65,  -6.00, 202.00
2,1, 1, 1, 0, 1, 0.00,15.00,Sunday
505,2767152.651584546
555,2368071.8982805964
796,2377120.787479447
2,1, 1, 1, 0, 1,15.00,30.00,Sunday
505,3029644.013922333
555,2770829.4683682546
796,2696304.6847729236
2,1, 1, 1, 0, 1,30.00,45.00,Sunday
505,4015073.7799134227
555,3756259.234359344
796,3405533.0648048148
2,1, 1, 1, 0, 1,45.00,60.00,Sunday
505,4925821.911234494
555,4667007.365680416
796,4050792.8239897722
2,1, 1, 1, 0, 2, 0.00,15.00,Sunday
505,5139391.791166484
555,4880577.245612405
796,4226776.056684811
2,1, 1, 1, 0, 2,15.00,30.00,Sunday
505,5326335.905889108
555,5067521.36033503
796,4376607.964991352
2,1, 1, 1, 0, 2,30.00,45.00,Sunday
505,5492453.283398402
555,5233638.737844324
796,4510639.088862741
2,1, 1, 1, 0, 2,45.00,60.00,Sunday
505,5645411.824629899
555,5386597.27907582
796,4632125.721276039
2,1, 1, 1, 0, 3, 0.00,15.00,Sunday
505,5531296.320045498
555,5272481.774491419
796,4530908.932915967
2,1, 1, 1, 0, 3,15.00,30.00,Sunday
505,5406671.803017389
555,5147857.25746331
796,4422940.130794704
2,1, 1, 1, 0, 3,30.00,45.00,Sunday
505,5278450.366810618
555,5019635.82125654
796,4311867.067650434
2,1, 1, 1, 0, 3,45.00,60.00,Sunday
505,5148111.014510413
555,4889296.468956334
796,4198719.968233207
2,1, 1, 1, 0, 4, 0.00,15.00,Sunday
505,5281713.479449034
555,5022898.933894956
796,4309980.774164422
2,1, 1, 1, 0, 4,15.00,30.00,Sunday
505,5416966.65163431
555,5158152.106080232
796,4419135.859657394
2,1, 1, 1, 0, 4,30.00,45.00,Sunday
505,5549720.149388537
555,5290905.603834458
796,4525613.422926222
2,1, 1, 1, 0, 4,45.00,60.00,Sunday
505,5681256.512018262
555,5422441.966464183
796,4631007.871680408
2,1, 1, 1, 0, 5, 0.00,15.00,Sunday
505,5726922.791792296
555,5468108.246238217
796,4662285.084299665
2,1, 1, 1, 0, 5,15.00,30.00,Sunday
505,5779040.15713789
555,5520225.611583812
796,4699471.702429836
2,1, 1, 1, 0, 5,30.00,45.00,Sunday
505,5831573.650132763
555,5572759.104578685
796,4737030.759741532
2,1, 1, 1, 0, 5,45.00,60.00,Sunday
505,5883385.042797752
555,5624570.497243673
796,4773919.741565016
2,1, 1, 1, 0, 6, 0.00,15.00,Sunday
505,5768132.615244256
555,5509318.069690177
796,4668095.55160355
2,1, 1, 1, 0, 6,15.00,30.00,Sunday
505,5665884.357932031
555,5407069.812377952
796,4577578.37781973
2,1, 1, 1, 0, 6,30.00,45.00,Sunday
505,5562161.777862665
555,5303347.232308586
796,4486769.954538237
2,1, 1, 1, 0, 6,45.00,60.00,Sunday
505,5455108.339109485
555,5196293.793555407
796,4393362.718397434
2,1, 1, 1, 0, 7, 0.00,15.00,Sunday
505,5347422.676081418
555,5088608.13052734
796,4306515.092142542
2,1, 1, 1, 0, 7,15.00,30.00,Sunday
505,6081355.048620385
555,5812830.14592345
796,4234743.45335929
2,1, 1, 1, 0, 7,30.00,45.00,Sunday
505,5987046.971462752
555,5718522.068765815
796,4169663.532336232
2,1, 1, 1, 0, 7,45.00,60.00,Sunday
505,5889602.17789695
555,5621077.275200015
796,4101294.767380006
2,1, 1, 1, 0, 8, 0.00,15.00,Sunday
505,5920367.119161327
555,5651842.216464392
796,4142706.1828959784
2,1, 1, 1, 0, 8,15.00,30.00,Sunday
505,5927942.7314796485
555,5659417.828782713
796,4158233.3464010297
2,1, 1, 1, 0, 8,30.00,45.00,Sunday
505,5838224.036333841
555,5569699.133636906
796,4088163.019056447
2,1, 1, 1, 0, 8,45.00,60.00,Sunday
505,5706108.390368795
555,5437583.487671859
796,3981172.394800041
2,1, 1, 1, 0, 9, 0.00,15.00,Sunday
505,5861486.523950572
555,5592961.621253637
796,4110548.5438537844
2,1, 1, 1, 0, 9,15.00,30.00,Sunday
505,5864232.698861656
555,5595707.79616472
796,4103952.777470897
2,1, 1, 1, 0, 9,30.00,45.00,Sunday
505,5860775.743389364
555,5592250.840692429
796,4091395.080905777
2,1, 1, 1, 0, 9,45.00,60.00,Sunday
505,5857597.86921775
555,5589072.966520814
796,4078459.4152758545
2,1, 1, 1, 0,10, 0.00,15.00,Sunday
505,5915482.286636637
555,5646957.383939701
796,4129936.1726357555
2,1, 1, 1, 0,10,15.00,30.00,Sunday
505,5912057.550577881
555,5643532.647880945
796,4128171.088182626
2,1, 1, 1, 0,10,30.00,45.00,Sunday
505,5853522.802646408
555,5585925.346010341
796,4138690.6166414875
2,1, 1, 1, 0,10,45.00,60.00,Sunday
505,5211942.603967741
555,4953128.058413663
796,4153582.2817995916
2,1, 1, 1, 0,11, 0.00,15.00,Sunday
505,4952040.550125988
555,4693226.004571909
796,3966109.3404793544
2,1, 1, 1, 0,11,15.00,30.00,Sunday
505,4677962.690014697
555,4419148.1444606185
796,3782913.6233932525
2,1, 1, 1, 0,11,30.00,45.00,Sunday
505,4427916.032234184
555,4169101.4866801063
796,3616950.5406822823
2,1, 1, 1, 0,11,45.00,60.00,Sunday
505,4187709.7159525985
555,3928895.1703985194
796,3460694.464184167
2,1, 1, 1, 0,12, 0.00,15.00,Sunday
505,4300658.806438088
555,4036989.0823125816
796,3253155.3620091304
2,1, 1, 1, 0,12,15.00,30.00,Sunday
505,4416922.099170059
555,4148397.196473123
796,3055923.505273056
2,1, 1, 1, 0,12,30.00,45.00,Sunday
505,4129479.231057913
555,3860954.3283609776
796,2859631.9204950915
2,1, 1, 1, 0,12,45.00,60.00,Sunday
505,3840001.9766083253
555,3571477.0739113893
796,2660112.371526459
2,1, 1, 1, 0,13, 0.00,15.00,Sunday
505,3748759.496200821
555,3480234.593503885
796,2625380.8717422592
2,1, 1, 1, 0,13,15.00,30.00,Sunday
505,3635000.090266511
555,3366475.1875695754
796,2579299.9458164554
2,1, 1, 1, 0,13,30.00,45.00,Sunday
505,3531242.6711511724
555,3262717.768454237
796,2542865.547688737
2,1, 1, 1, 0,13,45.00,60.00,Sunday
505,3431965.317222049
555,3163440.414525113
796,2510844.0299197757
2,1, 1, 1, 0,14, 0.00,15.00,Sunday
505,2668337.073528356
555,2406565.1991814584
796,2333272.151516267
2,1, 1, 1, 0,14,15.00,30.00,Sunday
505,2197842.6165416455
555,1939028.070987567
796,2161137.906127967
2,1, 1, 1, 0,14,30.00,45.00,Sunday
505,2015760.3974779444
555,1756945.8519238657
796,2043404.3266132623
2,1, 1, 1, 0,14,45.00,60.00,Sunday
505,1870912.0869275748
555,1612097.5413734962
796,1957782.355395325
2,1, 1, 1, 0,15, 0.00,15.00,Sunday
505,1856341.1550240507
555,1597526.609469972
796,1990533.1198768974
2,1, 1, 1, 0,15,15.00,30.00,Sunday
505,1856087.682298149
555,1597273.1367440703
796,2035265.1138787249
2,1, 1, 1, 0,15,30.00,45.00,Sunday
505,1794266.914414282
555,1535452.3688602033
796,2025413.8912657145
2,1, 1, 1, 0,15,45.00,60.00,Sunday
505,1700831.5252044739
555,1442016.9796503952
796,1987226.2973424923
2,1, 1, 1, 0,16, 0.00,15.00,Sunday
505,1657133.3357405106
555,1398318.790186432
796,1960837.9423007413
2,1, 1, 1, 0,16,15.00,30.00,Sunday
505,2438127.67123351
555,2169602.7685365747
796,1945400.5463428076
2,1, 1, 1, 0,16,30.00,45.00,Sunday
505,2493525.0172185604
555,2225000.1145216245
796,2018025.1864434606
2,1, 1, 1, 0,16,45.00,60.00,Sunday
505,2625386.094196244
555,2356861.191499308
796,2156144.5670722756
2,1, 1, 1, 0,17, 0.00,15.00,Sunday
505,2899045.7427571085
555,2630520.8400601726
796,2404560.9460142767
2,1, 1, 1, 0,17,15.00,30.00,Sunday
505,3263114.509089202
555,2994589.606392266
796,2727345.1747145425
2,1, 1, 1, 0,17,30.00,45.00,Sunday
505,3509641.460717179
555,3241154.387211245
796,2947047.428659546
2,1, 1, 1, 0,17,45.00,60.00,Sunday
505,2940364.0584951
555,2681549.5129410215
796,3098233.20244483
2,1, 1, 1, 0,18, 0.00,15.00,Sunday
505,3009692.2258808934
555,2750877.6803268148
796,3122518.687812493
2,1, 1, 1, 0,18,15.00,30.00,Sunday
505,3174186.829303504
555,2915372.2837494253
796,3224272.1305644196
2,1, 1, 1, 0,18,30.00,45.00,Sunday
505,3336549.9686939893
555,3077735.4231399107
796,3324393.9502384434
2,1, 1, 1, 0,18,45.00,60.00,Sunday
505,3495032.8496141024
555,3236218.304060024
796,3421772.011753647
2,1, 1, 1, 0,19, 0.00,15.00,Sunday
505,3155305.7067384776
555,2896491.1611843985
796,3147545.9896836258
2,1, 1, 1, 0,19,15.00,30.00,Sunday
505,2910025.3483860297
555,2651210.8028319515
796,2958878.3708970244
2,1, 1, 1, 0,19,30.00,45.00,Sunday
505,3524842.477955508
555,3256317.575258572
796,2773440.664148531
2,1, 1, 1, 0,19,45.00,60.00,Sunday
505,3277038.7984212013
555,3008513.895724266
796,2590967.7891139686
2,1, 1, 1, 0,20, 0.00,15.00,Sunday
505,3303880.957527961
555,3035356.054831025
796,2599291.527410867
2,1, 1, 1, 0,20,15.00,30.00,Sunday
505,3345462.4368191427
555,3076937.5341222067
796,2616575.5598259205
2,1, 1, 1, 0,20,30.00,45.00,Sunday
505,3386554.9318448026
555,3118030.029147867
796,2631972.9299554066
2,1, 1, 1, 0,20,45.00,60.00,Sunday
505,3425639.3734095935
555,3157114.470712658
796,2645494.9190489845
2,1, 1, 1, 0,21, 0.00,15.00,Sunday
505,3496033.9878012193
555,3227509.085104284
796,2707992.4936784846
2,1, 1, 1, 0,21,15.00,30.00,Sunday
505,3573810.558089261
555,3305285.6553923255
796,2774119.7948025092