Program Version,EnergyPlus, Version 22.1.0-ed759b17ee, YMD=2025.02.10 18:07
1,5,Environment Title[],Latitude[deg],Longitude[deg],Time Zone[],Elevation[m]
2,8,Day of Simulation[],Month[],Day of Month[],DST Indicator[1=yes 0=no],Hour[],StartMinute[],EndMinute[],DayType
3,5,Cumulative Day of Simulation[],Month[],Day of Month[],DST Indicator[1=yes 0=no],DayType  ! When Daily Meters Requested
4,2,Cumulative Days of Simulation[],Month[]  ! When Monthly Meters Requested
5,1,Cumulative Days of Simulation[] ! When Run Period Meters Requested
6,1,Calendar Year of Simulation[] ! When Annual Meters Requested
505,1,Electricity:HVAC [J] !TimeStep
555,1,Heating:Electricity [J] !TimeStep
796,1,Heating:EnergyTransfer:Zone:LIVING ZONE [J] !TimeStep
17,9,Electricity:Facility [J] !Monthly [Value,Min,Day,Hour,Minute,Max,Day,Hour,Minute]
29,9,Electricity:Building [J] !Monthly [Value,Min,Day,Hour,Minute,Max,Day,Hour,Minute]
65,9,InteriorLights:Electricity [J] !Monthly [Value,Min,Day,Hour,Minute,Max,Day,Hour,Minute]
508,9,Electricity:HVAC [J] !Monthly [Value,Min,Day,Hour,Minute,Max,Day,Hour,Minute]
19,11,Electricity:Facility [J] !RunPeriod [Value,Min,Month,Day,Hour,Minute,Max,Month,Day,Hour,Minute]
31,11,Electricity:Building [J] !RunPeriod [Value,Min,Month,Day,Hour,Minute,Max,Month,Day,Hour,Minute]
67,11,InteriorLights:Electricity [J] !RunPeriod [Value,Min,Month,Day,Hour,Minute,Max,Month,Day,Hour,Minute]
510,11,Electricity:HVAC [J] !RunPeriod [Value,Min,Month,Day,Hour,Minute,Max,Month,Day,Hour,Minute]
End of Data Dictionary
1,INTERNATIONAL FALLS INTL AP ANN HTG 99.6% CONDNS DB,  41.92, -87.57,  -6.00, 202.00
2,1, 1,21, 0, 1, 0.00,15.00,WinterDesignDay
505,10343079.628107643
555,10084339.251230206
796,6987903.249660927
2,1, 1,21, 0, 1,15.00,30.00,WinterDesignDay
505,10343079.628107643
555,10084339.251230206
796,6989046.380429299
2,1, 1,21, 0, 1,30.00,45.00,WinterDesignDay
505,10343079.628107643
555,10084339.251230206
796,6988511.542056224
2,1, 1,21, 0, 1,45.00,60.00,WinterDesignDay
505,10343079.628107643
555,10084339.251230206
796,6987895.06143796
2,1, 1,21, 0, 2, 0.00,15.00,WinterDesignDay
505,10343079.628107643
555,10084339.251230206
796,6988996.660909609
2,1, 1,21, 0, 2,15.00,30.00,WinterDesignDay
505,10343079.628107643
555,10084339.251230206
796,6989433.525660551
2,1, 1,21, 0, 2,30.00,45.00,WinterDesignDay
505,10343079.628107643
555,10084339.251230206
796,6989193.910027435
2,1, 1,21, 0, 2,45.00,60.00,WinterDesignDay
505,10343079.628107643
555,10084339.251230206
796,6988914.395272385
2,1, 1,21, 0, 3, 0.00,15.00,WinterDesignDay
505,10343079.628107643
555,10084339.251230206
796,6989082.26361187
2,1, 1,21, 0, 3,15.00,30.00,WinterDesignDay
505,10343079.628107643
555,10084339.251230206
796,6989173.292799125
2,1, 1,21, 0, 3,30.00,45.00,WinterDesignDay
505,10343079.628107643
555,10084339.251230206
796,6989096.090775358
2,1, 1,21, 0, 3,45.00,60.00,WinterDesignDay
505,10343079.628107643
555,10084339.251230206
796,6988987.37055885
2,1, 1,21, 0, 4, 0.00,15.00,WinterDesignDay
505,10343079.628107643
555,10084339.251230206
796,6989166.543856632
2,1, 1,21, 0, 4,15.00,30.00,WinterDesignDay
505,10343079.628107643
555,10084339.251230206
796,6989234.835467021
2,1, 1,21, 0, 4,30.00,45.00,WinterDesignDay
505,10343079.628107643
555,10084339.251230206
796,6989180.8476799
2,1, 1,21, 0, 4,45.00,60.00,WinterDesignDay
505,10343079.628107643
555,10084339.251230206
796,6989111.248882979
2,1, 1,21, 0, 5, 0.00,15.00,WinterDesignDay
505,10343079.628107643
555,10084339.251230206
796,6987375.166686694
2,1, 1,21, 0, 5,15.00,30.00,WinterDesignDay
505,10343079.628107643
555,10084339.251230206
796,6986830.423964255
2,1, 1,21, 0, 5,30.00,45.00,WinterDesignDay
505,10343079.628107643
555,10084339.251230206
796,6986992.581791134
2,1, 1,21, 0, 5,45.00,60.00,WinterDesignDay
505,10343079.628107643
555,10084339.251230206
796,6987072.563222739
2,1, 1,21, 0, 6, 0.00,15.00,WinterDesignDay
505,10343079.628107643
555,10084339.251230206
796,6981682.021256422
2,1, 1,21, 0, 6,15.00,30.00,WinterDesignDay
505,10343079.628107643
555,10084339.251230206
796,6979756.265905222
2,1, 1,21, 0, 6,30.00,45.00,WinterDesignDay
505,10343079.628107643
555,10084339.251230206
796,6980157.016966695
2,1, 1,21, 0, 6,45.00,60.00,WinterDesignDay
505,10343079.628107643
555,10084339.251230206
796,6980410.526338738
2,1, 1,21, 0, 7, 0.00,15.00,WinterDesignDay
505,10352789.985250501
555,10084339.251230206
796,6542234.806599621
2,1, 1,21, 0, 7,15.00,30.00,WinterDesignDay
505,10352789.985250501
555,10084339.251230206
796,6541518.109710715
2,1, 1,21, 0, 7,30.00,45.00,WinterDesignDay
505,10352789.985250501
555,10084339.251230206
796,6518954.445815186
2,1, 1,21, 0, 7,45.00,60.00,WinterDesignDay
505,10352789.985250501
555,10084339.251230206
796,6512812.811351966
2,1, 1,21, 0, 8, 0.00,15.00,WinterDesignDay
505,10352789.985250501
555,10084339.251230206
796,6520643.69990419
2,1, 1,21, 0, 8,15.00,30.00,WinterDesignDay
505,10352789.985250501
555,10084339.251230206
796,6523354.667748022
2,1, 1,21, 0, 8,30.00,45.00,WinterDesignDay
505,10352789.985250501
555,10084339.251230206
796,6523691.612326443
2,1, 1,21, 0, 8,45.00,60.00,WinterDesignDay
505,10352789.985250501
555,10084339.251230206
796,6524477.686113375
2,1, 1,21, 0, 9, 0.00,15.00,WinterDesignDay
505,10352789.985250501
555,10084339.251230206
796,6554924.523556033
2,1, 1,21, 0, 9,15.00,30.00,WinterDesignDay
505,10352789.985250501
555,10084339.251230206
796,6558460.071561831
2,1, 1,21, 0, 9,30.00,45.00,WinterDesignDay
505,10352789.985250501
555,10084339.251230206
796,6552936.7866523415
2,1, 1,21, 0, 9,45.00,60.00,WinterDesignDay
505,10352789.985250501
555,10084339.251230206
796,6551545.810168582
2,1, 1,21, 0,10, 0.00,15.00,WinterDesignDay
505,10352789.985250501
555,10084339.251230206
796,6565277.658508508
2,1, 1,21, 0,10,15.00,30.00,WinterDesignDay
505,10352789.985250501
555,10084339.251230206
796,6569712.098980427
2,1, 1,21, 0,10,30.00,45.00,WinterDesignDay
505,10352789.985250501
555,10084339.251230206
796,6570046.221068882
2,1, 1,21, 0,10,45.00,60.00,WinterDesignDay
505,10352789.985250501
555,10084339.251230206
796,6571606.330448752
2,1, 1,21, 0,11, 0.00,15.00,WinterDesignDay
505,10352789.985250501
555,10084339.251230206
796,6574917.580302459
2,1, 1,21, 0,11,15.00,30.00,WinterDesignDay
505,10352789.985250501
555,10084339.251230206
796,6579190.143245109
2,1, 1,21, 0,11,30.00,45.00,WinterDesignDay
505,10352789.985250501
555,10084339.251230206
796,6583083.299125538
2,1, 1,21, 0,11,45.00,60.00,WinterDesignDay
505,10352789.985250501
555,10084339.251230206
796,6586837.459170135
2,1, 1,21, 0,12, 0.00,15.00,WinterDesignDay
505,10352789.985250501
555,10084339.251230206
796,6591199.169217248
2,1, 1,21, 0,12,15.00,30.00,WinterDesignDay
505,10352789.985250501
555,10084339.251230206
796,6596105.936301526
2,1, 1,21, 0,12,30.00,45.00,WinterDesignDay
505,10352789.985250501
555,10084339.251230206
796,6600869.773509062
2,1, 1,21, 0,12,45.00,60.00,WinterDesignDay
505,10352789.985250501
555,10084339.251230206
796,6605523.982372505
2,1, 1,21, 0,13, 0.00,15.00,WinterDesignDay
505,10352789.985250501
555,10084339.251230206
796,6610839.731453631
2,1, 1,21, 0,13,15.00,30.00,WinterDesignDay
505,10352789.985250501
555,10084339.251230206
796,6616383.759659288
2,1, 1,21, 0,13,30.00,45.00,WinterDesignDay
505,10352789.985250501
555,10084339.251230206
796,6621681.928223188
2,1, 1,21, 0,13,45.00,60.00,WinterDesignDay
505,10352789.985250501
555,10084339.251230206
796,6626875.999767253
2,1, 1,21, 0,14, 0.00,15.00,WinterDesignDay
505,10350798.199045463
555,10084339.251230206
796,6703496.498842293
2,1, 1,21, 0,14,15.00,30.00,WinterDesignDay
505,10343079.628107643
555,10084339.251230206
796,6996220.608191855
2,1, 1,21, 0,14,30.00,45.00,WinterDesignDay
505,10343079.628107643
555,10084339.251230206
796,7003086.300799985
2,1, 1,21, 0,14,45.00,60.00,WinterDesignDay
505,10343079.628107643
555,10084339.251230206
796,7020592.468039895
2,1, 1,21, 0,15, 0.00,15.00,WinterDesignDay
505,10343079.628107643
555,10084339.251230206
796,7026002.926942263
2,1, 1,21, 0,15,15.00,30.00,WinterDesignDay
505,10343079.628107643
555,10084339.251230206
796,7024722.920467593
2,1, 1,21, 0,15,30.00,45.00,WinterDesignDay
505,10343079.628107643
555,10084339.251230206
796,7023258.259164512
2,1, 1,21, 0,15,45.00,60.00,WinterDesignDay
505,10343079.628107643
555,10084339.251230206
796,7022879.570535507
2,1, 1,21, 0,16, 0.00,15.00,WinterDesignDay
505,10343079.628107643
555,10084339.251230206
796,7020299.197509157
2,1, 1,21, 0,16,15.00,30.00,WinterDesignDay
505,10352789.985250501
555,10084339.251230206
796,6605908.802740759
2,1, 1,21, 0,16,30.00,45.00,WinterDesignDay
505,10352789.985250501
555,10084339.251230206
796,6610692.003104219
2,1, 1,21, 0,16,45.00,60.00,WinterDesignDay
505,10352789.985250501
555,10084339.251230206
796,6592314.288228651
2,1, 1,21, 0,17, 0.00,15.00,WinterDesignDay
505,10352789.985250501
555,10084339.251230206
796,6576798.394704113
2,1, 1,21, 0,17,15.00,30.00,WinterDesignDay
505,10352789.985250501
555,10084339.251230206
796,6579938.721309468
2,1, 1,21, 0,17,30.00,45.00,WinterDesignDay
505,10352789.985250501
555,10084339.251230206
796,6588831.465767162
2,1, 1,21, 0,17,45.00,60.00,WinterDesignDay
505,10352789.985250501
555,10084339.251230206
796,6595525.221743343
2,1, 1,21, 0,18, 0.00,15.00,WinterDesignDay
505,10352789.985250501
555,10084339.251230206
796,6577664.078229052
2,1, 1,21, 0,18,15.00,30.00,WinterDesignDay
505,10352789.985250501
555,10084339.251230206
796,6576067.485690679
2,1, 1,21, 0,18,30.00,45.00,WinterDesignDay
505,10352789.985250501
555,10084339.251230206
796,6582568.558830507
2,1, 1,21, 0,18,45.00,60.00,WinterDesignDay
505,10352789.985250501
555,10084339.251230206
796,6586846.456155665
2,1, 1,21, 0,19, 0.00,15.00,WinterDesignDay
505,10352789.985250501
555,10084339.251230206
796,6565050.6703929985
2,1, 1,21, 0,19,15.00,30.00,WinterDesignDay
505,10352723.577829605
555,10084339.251230206
796,6565202.620300389
2,1, 1,21, 0,19,30.00,45.00,WinterDesignDay
505,10343079.628107643
555,10084339.251230206
796,6948999.48513267
2,1, 1,21, 0,19,45.00,60.00,WinterDesignDay
505,10343079.628107643
555,10084339.251230206
796,6953237.027360168
2,1, 1,21, 0,20, 0.00,15.00,WinterDesignDay
505,10343079.628107643
555,10084339.251230206
796,6970637.37416188
2,1, 1,21, 0,20,15.00,30.00,WinterDesignDay
505,10343079.628107643
555,10084339.251230206
796,6976103.2104667695
2,1, 1,21, 0,20,30.00,45.00,WinterDesignDay
505,10343079.628107643
555,10084339.251230206
796,6973451.944578964
2,1, 1,21, 0,20,45.00,60.00,WinterDesignDay
505,10352789.985250501
555,10084339.251230206
796,6532660.765317982
2,1, 1,21, 0,21, 0.00,15.00,WinterDesignDay
505,10352789.985250501
555,10084339.251230206
796,6531066.139972086
2,1, 1,21, 0,21,15.00,30.00,WinterDesignDay
505,10352789.985250501
555,10084339.251230206
796,6506501.701947232
2,1, 1,21, 0,21,30.00,45.00,WinterDesignDay
505,10352789.985250501
555,10084339.251230206
796,6498467.209292482
2,1, 1,21, 0,21,45.00,60.00,WinterDesignDay
505,10352789.985250501
555,10084339.251230206
796,6502093.644672195
2,1, 1,21, 0,22, 0.00,15.00,WinterDesignDay
505,10352789.985250501
555,10084339.251230206
796,6508281.566571655
2,1, 1,21, 0,22,15.00,30.00,WinterDesignDay
505,10352789.985250501
555,10084339.251230206
796,6514610.151098689
2,1, 1,21, 0,22,30.00,45.00,WinterDesignDay
505,10352789.985250501
555,10084339.251230206
796,6519074.354670174
2,1, 1,21, 0,22,45.00,60.00,WinterDesignDay
505,10352789.985250501
555,10084339.251230206
796,6522842.839719168
2,1, 1,21, 0,23, 0.00,15.00,WinterDesignDay
505,10352789.985250501
555,10084339.251230206
796,6538884.827845557
2,1, 1,21, 0,23,15.00,30.00,WinterDesignDay
505,10352789.985250501
555,10084339.251230206
796,6549201.9607533235
2,1, 1,21, 0,23,30.00,45.00,WinterDesignDay
505,10351716.621441325
555,10084339.251230206
796,6596051.673275714
2,1, 1,21, 0,23,45.00,60.00,WinterDesignDay
505,10343079.628107643
555,10084339.251230206
796,6945758.819531304
2,1, 1,21, 0,24, 0.00,15.00,WinterDesignDay
505,10343079.628107643
555,10084339.251230206
796,6958763.739467916
2,1, 1,21, 0,24,15.00,30.00,WinterDesignDay
505,10343079.628107643
555,10084339.251230206
796,6980978.497527497
2,1, 1,21, 0,24,30.00,45.00,WinterDesignDay
505,10343079.628107643
555,10084339.251230206
796,6986812.398491094
2,1, 1,21, 0,24,45.00,60.00,WinterDesignDay
505,10343079.628107643
555,10084339.251230206
796,6984328.065873925
4,1, 1
17,1104737603.7879953,10929851.464671863,21, 4,15,12257616.630803091,21,19,15
29,88231075.81009297,539940.4145963427,21, 4,15,1472141.8073613935,21,19,15
65,10234137.401675869,20913.154638386502,21, 1,15,304191.34019471274,21,20,15
508,993456872.0266119,10343079.628107643,21, 1,15,10352789.985250501,21, 7,15
5,1
19,1104737603.7879953,10929851.464671863, 1,21, 4,15,12257616.630803091, 1,21,19,15
31,88231075.81009297,539940.4145963427, 1,21, 4,15,1472141.8073613935, 1,21,19,15
67,10234137.401675869,20913.154638386502, 1,21, 1,15,304191.34019471274, 1,21,20,15
510,993456872.0266119,10343079.628107643, 1,21, 1,15,10352789.985250501, 1,21, 7,15
1,INTERNATIONAL FALLS INTL AP ANN CLG .4% CONDNS DB=>MWB,  41.92, -87.57,  -6.00, 202.00
2,1, 7,21, 0, 1, 0.00,15.00,SummerDesignDay
505,381016.7545033599
555,0.0
796,0.0
2,1, 7,21, 0, 1,15.00,30.00,SummerDesignDay
505,355283.289189668
555,0.0
796,0.0
2,1, 7,21, 0, 1,30.00,45.00,SummerDesignDay
505,331635.1983972493
555,0.0
796,0.0
2,1, 7,21, 0, 1,45.00,60.00,SummerDesignDay
505,308777.12516038306
555,0.0
796,0.0
2,1, 7,21, 0, 2, 0.00,15.00,SummerDesignDay
505,284714.15139058273
555,0.0
796,0.0
2,1, 7,21, 0, 2,15.00,30.00,SummerDesignDay
505,264498.7170152295
555,0.0
796,0.0
2,1, 7,21, 0, 2,30.00,45.00,SummerDesignDay
505,244948.8943854688
555,0.0
796,0.0
2,1, 7,21, 0, 2,45.00,60.00,SummerDesignDay
505,226414.8598843263
555,0.0
796,0.0
2,1, 7,21, 0, 3, 0.00,15.00,SummerDesignDay
505,208111.61119315424
555,0.0
796,0.0
2,1, 7,21, 0, 3,15.00,30.00,SummerDesignDay
505,191538.6102039307
555,0.0
796,0.0
2,1, 7,21, 0, 3,30.00,45.00,SummerDesignDay
505,175128.19527814852
555,0.0
796,0.0
2,1, 7,21, 0, 3,45.00,60.00,SummerDesignDay
505,159467.25650973612
555,0.0
796,0.0
2,1, 7,21, 0, 4, 0.00,15.00,SummerDesignDay
505,143502.90825137807
555,0.0
796,0.0
2,1, 7,21, 0, 4,15.00,30.00,SummerDesignDay
505,128387.28187261219
555,0.0
796,0.0
2,1, 7,21, 0, 4,30.00,45.00,SummerDesignDay
505,113795.8358253465
555,0.0
796,0.0
2,1, 7,21, 0, 4,45.00,60.00,SummerDesignDay
505,99639.3171547694
555,0.0
796,0.0
2,1, 7,21, 0, 5, 0.00,15.00,SummerDesignDay
505,91057.71888918844
555,0.0
796,0.0
2,1, 7,21, 0, 5,15.00,30.00,SummerDesignDay
505,80398.36824810386
555,0.0
796,0.0
2,1, 7,21, 0, 5,30.00,45.00,SummerDesignDay
505,95135.67833999007
555,0.0
796,0.0
2,1, 7,21, 0, 5,45.00,60.00,SummerDesignDay
505,140584.38486515725
555,0.0
796,0.0
2,1, 7,21, 0, 6, 0.00,15.00,SummerDesignDay
505,230387.79496072448
555,0.0
796,0.0
2,1, 7,21, 0, 6,15.00,30.00,SummerDesignDay
505,316046.03475721396
555,0.0
796,0.0
2,1, 7,21, 0, 6,30.00,45.00,SummerDesignDay
505,391112.31562700565
555,0.0
796,0.0
2,1, 7,21, 0, 6,45.00,60.00,SummerDesignDay
505,465408.4241336327
555,0.0
796,0.0
2,1, 7,21, 0, 7, 0.00,15.00,SummerDesignDay
505,541817.2412467638
555,0.0
796,0.0
2,1, 7,21, 0, 7,15.00,30.00,SummerDesignDay
505,600784.3187857757
555,0.0
796,0.0
2,1, 7,21, 0, 7,30.00,45.00,SummerDesignDay
505,503426.1890537791
555,0.0
796,0.0
2,1, 7,21, 0, 7,45.00,60.00,SummerDesignDay
505,409300.89702518354
555,0.0
796,0.0
2,1, 7,21, 0, 8, 0.00,15.00,SummerDesignDay
505,459293.8351456168
555,0.0
796,0.0
2,1, 7,21, 0, 8,15.00,30.00,SummerDesignDay
505,506884.78765138896
555,0.0
796,0.0
2,1, 7,21, 0, 8,30.00,45.00,SummerDesignDay
505,646397.6148125845
555,0.0
796,0.0
2,1, 7,21, 0, 8,45.00,60.00,SummerDesignDay
505,842255.3835993803
555,0.0
796,0.0
2,1, 7,21, 0, 9, 0.00,15.00,SummerDesignDay
505,836325.4718256621
555,0.0
796,0.0
2,1, 7,21, 0, 9,15.00,30.00,SummerDesignDay
505,871387.4477626566
555,0.0
796,0.0
2,1, 7,21, 0, 9,30.00,45.00,SummerDesignDay
505,906613.894905125
555,0.0
796,0.0
2,1, 7,21, 0, 9,45.00,60.00,SummerDesignDay
505,940838.3940974044
555,0.0
796,0.0
2,1, 7,21, 0,10, 0.00,15.00,SummerDesignDay
505,953581.5537758017
555,0.0
796,0.0
2,1, 7,21, 0,10,15.00,30.00,SummerDesignDay
505,704812.4204116926
555,0.0
796,0.0
2,1, 7,21, 0,10,30.00,45.00,SummerDesignDay
505,729466.2449657922
555,0.0
796,0.0
2,1, 7,21, 0,10,45.00,60.00,SummerDesignDay
505,748917.0405072335
555,0.0
796,0.0
2,1, 7,21, 0,11, 0.00,15.00,SummerDesignDay
505,766747.384540624
555,0.0
796,0.0
2,1, 7,21, 0,11,15.00,30.00,SummerDesignDay
505,903560.0294616529
555,0.0
796,0.0
2,1, 7,21, 0,11,30.00,45.00,SummerDesignDay
505,1060460.4681779197
555,0.0
796,0.0
2,1, 7,21, 0,11,45.00,60.00,SummerDesignDay
505,1075547.0814056545
555,0.0
796,0.0
2,1, 7,21, 0,12, 0.00,15.00,SummerDesignDay
505,1080937.1752130128
555,0.0
796,0.0
2,1, 7,21, 0,12,15.00,30.00,SummerDesignDay
505,1087638.3545908388
555,0.0
796,0.0
2,1, 7,21, 0,12,30.00,45.00,SummerDesignDay
505,1097553.3325078324
555,0.0
796,0.0
2,1, 7,21, 0,12,45.00,60.00,SummerDesignDay
505,1113961.1551321018
555,0.0
796,0.0
2,1, 7,21, 0,13, 0.00,15.00,SummerDesignDay
505,1134273.0127381533
555,0.0
796,0.0
2,1, 7,21, 0,13,15.00,30.00,SummerDesignDay
505,1165131.1996548558
555,0.0
796,0.0
2,1, 7,21, 0,13,30.00,45.00,SummerDesignDay
505,910771.4876268599
555,0.0
796,0.0
2,1, 7,21, 0,13,45.00,60.00,SummerDesignDay
505,952632.0343342655
555,0.0
796,0.0
2,1, 7,21, 0,14, 0.00,15.00,SummerDesignDay
505,997135.929799047
555,0.0
796,0.0
2,1, 7,21, 0,14,15.00,30.00,SummerDesignDay
505,1099087.5428345813
555,0.0
796,0.0
2,1, 7,21, 0,14,30.00,45.00,SummerDesignDay
505,1340035.3232643565
555,0.0
796,0.0
2,1, 7,21, 0,14,45.00,60.00,SummerDesignDay
505,1342186.5548722856
555,0.0
796,0.0
2,1, 7,21, 0,15, 0.00,15.00,SummerDesignDay
505,1342423.4340635045
555,0.0
796,0.0
2,1, 7,21, 0,15,15.00,30.00,SummerDesignDay
505,1342808.339484573
555,0.0
796,0.0
2,1, 7,21, 0,15,30.00,45.00,SummerDesignDay
505,1343244.2752942038
555,0.0
796,0.0
2,1, 7,21, 0,15,45.00,60.00,SummerDesignDay
505,1343702.7945394223
555,0.0
796,0.0
2,1, 7,21, 0,16, 0.00,15.00,SummerDesignDay
505,1341601.7490552291
555,0.0
796,0.0
2,1, 7,21, 0,16,15.00,30.00,SummerDesignDay
505,1339680.8865056266
555,0.0
796,0.0
2,1, 7,21, 0,16,30.00,45.00,SummerDesignDay
505,1337620.6743084388
555,0.0
796,0.0
2,1, 7,21, 0,16,45.00,60.00,SummerDesignDay
505,1335365.8953043828
555,0.0
796,0.0
2,1, 7,21, 0,17, 0.00,15.00,SummerDesignDay
505,1332333.0506392273
555,0.0
796,0.0
2,1, 7,21, 0,17,15.00,30.00,SummerDesignDay
505,1333092.400641426
555,0.0
796,0.0
2,1, 7,21, 0,17,30.00,45.00,SummerDesignDay
505,1332630.9392389718
555,0.0
796,0.0
2,1, 7,21, 0,17,45.00,60.00,SummerDesignDay
505,1326663.0236572735
555,0.0
796,0.0
2,1, 7,21, 0,18, 0.00,15.00,SummerDesignDay
505,1321350.4937383323
555,0.0
796,0.0
2,1, 7,21, 0,18,15.00,30.00,SummerDesignDay
505,1309947.327339273
555,0.0
796,0.0
2,1, 7,21, 0,18,30.00,45.00,SummerDesignDay
505,1306192.7395501253
555,0.0
796,0.0
2,1, 7,21, 0,18,45.00,60.00,SummerDesignDay
505,1303191.6089771804
555,0.0
796,0.0
2,1, 7,21, 0,19, 0.00,15.00,SummerDesignDay
505,1297550.1580030005
555,0.0
796,0.0
2,1, 7,21, 0,19,15.00,30.00,SummerDesignDay
505,1291746.002309912
555,0.0
796,0.0
2,1, 7,21, 0,19,30.00,45.00,SummerDesignDay
505,1285405.820500025
555,0.0
796,0.0
2,1, 7,21, 0,19,45.00,60.00,SummerDesignDay
505,1242188.0031543577
555,0.0
796,0.0
2,1, 7,21, 0,20, 0.00,15.00,SummerDesignDay
505,1128409.3030064208
555,0.0
796,0.0
2,1, 7,21, 0,20,15.00,30.00,SummerDesignDay
505,909762.9867230117
555,0.0
796,0.0
2,1, 7,21, 0,20,30.00,45.00,SummerDesignDay
505,710435.5264051425
555,0.0
796,0.0
2,1, 7,21, 0,20,45.00,60.00,SummerDesignDay
505,661511.5770415385
555,0.0
796,0.0
2,1, 7,21, 0,21, 0.00,15.00,SummerDesignDay
505,623354.4920279403
555,0.0
796,0.0
2,1, 7,21, 0,21,15.00,30.00,SummerDesignDay
505,658564.6026228444
555,0.0
796,0.0
2,1, 7,21, 0,21,30.00,45.00,SummerDesignDay
505,815590.9913661683
555,0.0
796,0.0
2,1, 7,21, 0,21,45.00,60.00,SummerDesignDay
505,786688.2916461197
555,0.0
796,0.0
2,1, 7,21, 0,22, 0.00,15.00,SummerDesignDay
505,753053.366970034
555,0.0
796,0.0
2,1, 7,21, 0,22,15.00,30.00,SummerDesignDay
505,723108.8843257857
555,0.0
796,0.0
2,1, 7,21, 0,22,30.00,45.00,SummerDesignDay
505,695215.5312974667
555,0.0
796,0.0
2,1, 7,21, 0,22,45.00,60.00,SummerDesignDay
505,668576.9522829743
555,0.0
796,0.0
2,1, 7,21, 0,23, 0.00,15.00,SummerDesignDay
505,621479.1268364378
555,0.0
796,0.0
2,1, 7,21, 0,23,15.00,30.00,SummerDesignDay
505,590816.0135817066
555,0.0
796,0.0
2,1, 7,21, 0,23,30.00,45.00,SummerDesignDay
505,564213.4768633088
555,0.0
796,0.0
2,1, 7,21, 0,23,45.00,60.00,SummerDesignDay
505,539649.9887572418
555,0.0
796,0.0
2,1, 7,21, 0,24, 0.00,15.00,SummerDesignDay
505,207850.57585584847
555,0.0
796,0.0
2,1, 7,21, 0,24,15.00,30.00,SummerDesignDay
505,181157.74270273416
555,0.0
796,0.0
2,1, 7,21, 0,24,30.00,45.00,SummerDesignDay
505,158414.83343419226
555,0.0
796,0.0
2,1, 7,21, 0,24,45.00,60.00,SummerDesignDay
505,355411.7288823119
555,0.0
796,0.0
4,1, 7
17,174136560.89887592,686411.1537189902,21, 4,60,3162947.9836718016,21,18,15
29,88231075.81009297,539940.4145963427,21, 4,15,1472141.8073613935,21,19,15
65,10234137.401675869,20913.154638386502,21, 1,15,304191.34019471274,21,20,15
508,72518757.13669597,80398.36824810386,21, 5,30,1343702.7945394223,21,15,60
5,1
19,174136560.89887592,686411.1537189902, 7,21, 4,60,3162947.9836718016, 7,21,18,15
31,88231075.81009297,539940.4145963427, 7,21, 4,15,1472141.8073613935, 7,21,19,15
67,10234137.401675869,20913.154638386502, 7,21, 1,15,304191.34019471274, 7,21,20,15
510,72518757.13669597,80398.36824810386, 7,21, 5,30,1343702.7945394223, 7,21,15,60
1,ANNUAL,  41.92, -87.57,  -6.00, 202.00
2,1, 1, 1, 0, 1, 0.00,15.00,Sunday
505,6127554.280431217
555,5783716.910666891
796,4650307.764181596
2,1, 1, 1, 0, 1,15.00,30.00,Sunday
505,5836786.911183147
555,5578046.534305709
796,4633646.394163027
2,1, 1, 1, 0, 1,30.00,45.00,Sunday
505,5544462.67700833
555,5285722.300130893
796,4593407.702627782
2,1, 1, 1, 0, 1,45.00,60.00,Sunday
505,5167946.707722226
555,4909206.33084479
796,4442685.410961283
2,1, 1, 1, 0, 2, 0.00,15.00,Sunday
505,5259978.571512274
555,5001238.194634838
796,4530170.997747933
2,1, 1, 1, 0, 2,15.00,30.00,Sunday
505,5328093.347345282
555,5069352.970467845
796,4595367.057312522
2,1, 1, 1, 0, 2,30.00,45.00,Sunday
505,5382998.637291805
555,5124258.2604143685
796,4642982.008428012
2,1, 1, 1, 0, 2,45.00,60.00,Sunday
505,5420725.572473427
555,5161985.19559599
796,4675736.386966829
2,1, 1, 1, 0, 3, 0.00,15.00,Sunday
505,5459996.930231918
555,5201256.55335448
796,4706969.902297198
2,1, 1, 1, 0, 3,15.00,30.00,Sunday
505,5488443.658356506
555,5229703.281479069
796,4728365.389505373
2,1, 1, 1, 0, 3,30.00,45.00,Sunday
505,5507409.419040721
555,5248669.0421632845
796,4741116.41652596
2,1, 1, 1, 0, 3,45.00,60.00,Sunday
505,5518325.139989189
555,5259584.7631117515
796,4746190.093267418
2,1, 1, 1, 0, 4, 0.00,15.00,Sunday
505,5550685.93765662
555,5291945.560779182
796,4758770.717497341
2,1, 1, 1, 0, 4,15.00,30.00,Sunday
505,5577373.606226698
555,5318633.229349261
796,4766205.698612786
2,1, 1, 1, 0, 4,30.00,45.00,Sunday
505,5599551.8435587045
555,5340811.466681267
796,4769552.829749522
2,1, 1, 1, 0, 4,45.00,60.00,Sunday
505,5618161.357475065
555,5359420.980597627
796,4769663.667075787
2,1, 1, 1, 0, 5, 0.00,15.00,Sunday
505,5616105.314096415
555,5357364.937218979
796,4753876.5646647895
2,1, 1, 1, 0, 5,15.00,30.00,Sunday
505,5620253.672000859
555,5361513.2951234225
796,4743278.526380176
2,1, 1, 1, 0, 5,30.00,45.00,Sunday
505,5624018.22105754
555,5365277.844180102
796,4732173.726120024
2,1, 1, 1, 0, 5,45.00,60.00,Sunday
505,5626773.894987549
555,5368033.518110111
796,4720024.062132981
2,1, 1, 1, 0, 6, 0.00,15.00,Sunday
505,5549541.073131279
555,5290800.696253842
796,4653683.983536567
2,1, 1, 1, 0, 6,15.00,30.00,Sunday
505,5489732.834106326
555,5230992.45722889
796,4609038.498072692
2,1, 1, 1, 0, 6,30.00,45.00,Sunday
505,5434687.7828569235
555,5175947.405979486
796,4569043.192085546
2,1, 1, 1, 0, 6,45.00,60.00,Sunday
505,5381921.069109136
555,5123180.692231699
796,4530961.584316258
2,1, 1, 1, 0, 7, 0.00,15.00,Sunday
505,5181554.474812643
555,4922814.097935206
796,4369796.950840171
2,1, 1, 1, 0, 7,15.00,30.00,Sunday
505,5874162.601403369
555,5605711.867383074
796,4224351.255601391
2,1, 1, 1, 0, 7,30.00,45.00,Sunday
505,5684422.096657513
555,5415971.362637218
796,4086088.3198745707
2,1, 1, 1, 0, 7,45.00,60.00,Sunday
505,5490578.118668794
555,5222127.3846485
796,3944179.8094744
2,1, 1, 1, 0, 8, 0.00,15.00,Sunday
505,5579920.681875123
555,5311469.947854829
796,4033229.0156300315
2,1, 1, 1, 0, 8,15.00,30.00,Sunday
505,5543059.611125187
555,5274608.877104893
796,4003932.272270541
2,1, 1, 1, 0, 8,30.00,45.00,Sunday
505,5554101.811295079
555,5285651.077274785
796,4015651.299653132
2,1, 1, 1, 0, 8,45.00,60.00,Sunday
505,5582140.690405613
555,5313689.956385318
796,4042342.3380216286
2,1, 1, 1, 0, 9, 0.00,15.00,Sunday
505,5606967.518716133
555,5338516.7846958395
796,4058167.342937411
2,1, 1, 1, 0, 9,15.00,30.00,Sunday
505,5453615.266904868
555,5185164.5328845745
796,3920001.8446958093
2,1, 1, 1, 0, 9,30.00,45.00,Sunday
505,5236414.640971812
555,4967963.906951519
796,3729299.113441468
2,1, 1, 1, 0, 9,45.00,60.00,Sunday
505,5194080.494056847
555,4925629.760036553
796,3688824.2201498463
2,1, 1, 1, 0,10, 0.00,15.00,Sunday
505,5115951.461499387
555,4848167.756159177
796,3678458.2390079293
2,1, 1, 1, 0,10,15.00,30.00,Sunday
505,4308989.497210607
555,4050249.1203331696
796,3615296.758182685
2,1, 1, 1, 0,10,30.00,45.00,Sunday
505,4203899.803913705
555,3945159.4270362686
796,3535446.739738336
2,1, 1, 1, 0,10,45.00,60.00,Sunday
505,4114516.3065346214
555,3855775.9296571845
796,3469446.7310720007
2,1, 1, 1, 0,11, 0.00,15.00,Sunday
505,4022535.251230385
555,3763794.8743529487
796,3390990.911193754
2,1, 1, 1, 0,11,15.00,30.00,Sunday
505,3935259.0190123348
555,3676518.642134898
796,3315027.8533076677
2,1, 1, 1, 0,11,30.00,45.00,Sunday
505,4713524.221593604
555,4445073.487573311
796,3257317.7301334683
2,1, 1, 1, 0,11,45.00,60.00,Sunday
505,4644933.35484045
555,4376482.620820156
796,3208288.9838322536
2,1, 1, 1, 0,12, 0.00,15.00,Sunday
505,4594293.09627039
555,4325842.362250096
796,3183336.0706007844
2,1, 1, 1, 0,12,15.00,30.00,Sunday
505,4532808.34089184
555,4264357.606871546
796,3150836.058216172
2,1, 1, 1, 0,12,30.00,45.00,Sunday
505,4584172.905076028
555,4315722.171055734
796,3217211.334585773
2,1, 1, 1, 0,12,45.00,60.00,Sunday
505,4606026.071855481
555,4337575.337835187
796,3256145.5319192577
2,1, 1, 1, 0,13, 0.00,15.00,Sunday
505,4600033.138961649
555,4331582.404941354
796,3268899.4720311323
2,1, 1, 1, 0,13,15.00,30.00,Sunday
505,4433578.897118522
555,4167128.4756654683
796,3275872.2250258517
2,1, 1, 1, 0,13,30.00,45.00,Sunday
505,3832209.770434642
555,3573469.393557206
796,3282705.1207579453
2,1, 1, 1, 0,13,45.00,60.00,Sunday
505,3834070.6664773114
555,3575330.289599875
796,3290230.041535665
2,1, 1, 1, 0,14, 0.00,15.00,Sunday
505,3893649.536988831
555,3634909.160111394
796,3350201.3129836274
2,1, 1, 1, 0,14,15.00,30.00,Sunday
505,3954991.548057708
555,3696251.1711802706
796,3411447.032475229
2,1, 1, 1, 0,14,30.00,45.00,Sunday
505,4026069.675024309
555,3767329.298146873
796,3481164.755621645
2,1, 1, 1, 0,14,45.00,60.00,Sunday
505,4088944.9229482077
555,3830204.5460707704
796,3543755.261741916
2,1, 1, 1, 0,15, 0.00,15.00,Sunday
505,4234888.868251581
555,3976148.4913741434
796,3665554.0470774
2,1, 1, 1, 0,15,15.00,30.00,Sunday
505,4391268.467979131
555,4132528.091101695
796,3793346.3367773187
2,1, 1, 1, 0,15,30.00,45.00,Sunday
505,5383772.513035355
555,5115321.779015061
796,3926934.0148926303
2,1, 1, 1, 0,15,45.00,60.00,Sunday
505,5536824.137524411
555,5268373.403504117
796,4066044.020978173
2,1, 1, 1, 0,16, 0.00,15.00,Sunday
505,5647298.856748822
555,5378848.122728528
796,4163937.6694869413
2,1, 1, 1, 0,16,15.00,30.00,Sunday
505,5777370.647817241
555,5508919.913796947
796,4277017.321068836
2,1, 1, 1, 0,16,30.00,45.00,Sunday
505,1589237.4481960656
555,1415782.43723241
796,992834.3392135035
2,1, 1, 1, 0,16,45.00,60.00,Sunday
505,2830445.5774125415
555,2633485.0484982487
796,2039882.3789468678
2,1, 1, 1, 0,17, 0.00,15.00,Sunday
505,2700801.828394613
555,2442061.451517176
796,2352216.1411016756
2,1, 1, 1, 0,17,15.00,30.00,Sunday
505,2849160.452160835
555,2590420.075283398
796,2446691.4560607797
2,1, 1, 1, 0,17,30.00,45.00,Sunday
505,3167202.3126335777
555,2908461.9357561413
796,2691350.9733358133
2,1, 1, 1, 0,17,45.00,60.00,Sunday
505,3354262.3952861694
555,3095522.0184087325
796,2822144.4891284765
2,1, 1, 1, 0,18, 0.00,15.00,Sunday
505,3395010.400335562
555,3136270.023458125
796,2840638.919134311
2,1, 1, 1, 0,18,15.00,30.00,Sunday
505,3506012.802824635
555,3247272.425947198
796,2921492.370188581
2,1, 1, 1, 0,18,30.00,45.00,Sunday
505,3597208.9206091063
555,3338468.543731669
796,2985409.8874968416
2,1, 1, 1, 0,18,45.00,60.00,Sunday
505,4411166.631039259
555,4142715.8970189653
796,3030122.623789731
2,1, 1, 1, 0,19, 0.00,15.00,Sunday
505,4337764.240802575
555,4069313.5067822807
796,2947483.562487623
2,1, 1, 1, 0,19,15.00,30.00,Sunday
505,4374609.288024107
555,4106158.5540038133
796,2958107.322404692
2,1, 1, 1, 0,19,30.00,45.00,Sunday
505,4406004.487534618
555,4137553.7535143243
796,2963911.6502703023
2,1, 1, 1, 0,19,45.00,60.00,Sunday
505,4423698.423902002
555,4155247.6898817085
796,2958266.5308969105
2,1, 1, 1, 0,20, 0.00,15.00,Sunday
505,4527431.359410284
555,4258980.6253899895
796,3048243.460063917
2,1, 1, 1, 0,20,15.00,30.00,Sunday
505,4635710.975180143
555,4367260.241159849
796,3145137.7600738197
2,1, 1, 1, 0,20,30.00,45.00,Sunday
505,4741743.659768673
555,4473292.925748378
796,3240197.6677117953
2,1, 1, 1, 0,20,45.00,60.00,Sunday
505,4846171.930742767
555,4577721.196722473
796,3333714.8637931077
2,1, 1, 1, 0,21, 0.00,15.00,Sunday
505,4931339.314120796
555,4662888.580100501
796,3391390.107231605
2,1, 1, 1, 0,21,15.00,30.00,Sunday
505,4821301.083596591