Program Version,EnergyPlus, Version 22.1.0-ed759b17ee, YMD=2025.02.07 10:25
1,5,Environment Title[],Latitude[deg],Longitude[deg],Time Zone[],Elevation[m]
2,8,Day of Simulation[],Month[],Day of Month[],DST Indicator[1=yes 0=no],Hour[],StartMinute[],EndMinute[],DayType
3,5,Cumulative Day of Simulation[],Month[],Day of Month[],DST Indicator[1=yes 0=no],DayType  ! When Daily Report Variables Requested
4,2,Cumulative Days of Simulation[],Month[]  ! When Monthly Report Variables Requested
5,1,Cumulative Days of Simulation[] ! When Run Period Report Variables Requested
6,1,Calendar Year of Simulation[] ! When Annual Report Variables Requested
7,1,Environment,Site Outdoor Air Drybulb Temperature [C] !TimeStep
8,1,Environment,Site Wind Speed [m/s] !TimeStep
9,1,Environment,Site Wind Direction [deg] !TimeStep
10,1,Environment,Site Horizontal Infrared Radiation Rate per Area [W/m2] !TimeStep
11,1,Environment,Site Direct Solar Radiation Rate per Area [W/m2] !TimeStep
12,1,Environment,Site Rain Status [] !TimeStep
467,1,COOLING COIL,Cooling Coil Total Cooling Energy [J] !TimeStep,REPORTSCH
504,1,COOLING COIL,Cooling Coil Electricity Energy [J] !TimeStep
541,1,MAIN HEATING COIL,Heating Coil Heating Energy [J] !TimeStep,REPORTSCH
554,1,MAIN HEATING COIL,Heating Coil Electricity Energy [J] !TimeStep
581,1,HEAT PUMP WATER HEATER EVAPORATOR_UNIT1,Cooling Coil Total Cooling Energy [J] !TimeStep,REPORTSCH
608,1,SUPPLY FAN,Fan Electricity Energy [J] !TimeStep
633,1,OASUPPLYFAN_UNIT1,Fan Electricity Energy [J] !TimeStep
646,1,OAEXHAUSTFAN_UNIT1,Fan Electricity Energy [J] !TimeStep
647,1,HEAT PUMP WATER HEATER FAN_UNIT1,Fan Electricity Energy [J] !TimeStep
648,1,LIVING ZONE,Zone Mean Air Temperature [C] !TimeStep
649,1,ATTIC_UNIT1,Zone Mean Air Temperature [C] !TimeStep
650,1,CRAWLSPACE_UNIT1,Zone Mean Air Temperature [C] !TimeStep
651,1,LIVING ZONE,Zone Ventilation Sensible Heat Loss Energy [J] !TimeStep,REPORTSCH
652,1,LIVING ZONE,Zone Ventilation Sensible Heat Gain Energy [J] !TimeStep,REPORTSCH
690,1,CRAWLSPACE_UNIT1,AFN Node Temperature [C] !TimeStep,REPORTSCH
691,1,LIVING ZONE,AFN Node Temperature [C] !TimeStep,REPORTSCH
692,1,ATTIC_UNIT1,AFN Node Temperature [C] !TimeStep,REPORTSCH
693,1,ExtNode   1,AFN Node Temperature [C] !TimeStep,REPORTSCH
694,1,ExtNode   2,AFN Node Temperature [C] !TimeStep,REPORTSCH
695,1,ExtNode   3,AFN Node Temperature [C] !TimeStep,REPORTSCH
696,1,ExtNode   4,AFN Node Temperature [C] !TimeStep,REPORTSCH
697,1,ExtNode   5,AFN Node Temperature [C] !TimeStep,REPORTSCH
698,1,ExtNode   6,AFN Node Temperature [C] !TimeStep,REPORTSCH
699,1,ExtNode   7,AFN Node Temperature [C] !TimeStep,REPORTSCH
700,1,ExtNode   8,AFN Node Temperature [C] !TimeStep,REPORTSCH
701,1,ExtNode   9,AFN Node Temperature [C] !TimeStep,REPORTSCH
702,1,ExtNode  10,AFN Node Temperature [C] !TimeStep,REPORTSCH
703,1,ExtNode  11,AFN Node Temperature [C] !TimeStep,REPORTSCH
704,1,ExtNode  12,AFN Node Temperature [C] !TimeStep,REPORTSCH
705,1,ExtNode  13,AFN Node Temperature [C] !TimeStep,REPORTSCH
706,1,ExtNode  14,AFN Node Temperature [C] !TimeStep,REPORTSCH
707,1,ExtNode  15,AFN Node Temperature [C] !TimeStep,REPORTSCH
708,1,ExtNode  16,AFN Node Temperature [C] !TimeStep,REPORTSCH
709,1,EQUIPMENTINLETNODE_UNIT1,AFN Node Temperature [C] !TimeStep,REPORTSCH
710,1,SPLITTERNODE_UNIT1,AFN Node Temperature [C] !TimeStep,REPORTSCH
711,1,ZONESUPPLYNODE_UNIT1,AFN Node Temperature [C] !TimeStep,REPORTSCH
712,1,ZONESUPPLYREGISTERNODE_UNIT1 ATINLET,AFN Node Temperature [C] !TimeStep,REPORTSCH
713,1,ZONESUPPLYREGISTERNODE_UNIT1,AFN Node Temperature [C] !TimeStep,REPORTSCH
714,1,ZONEOUTLETNODE_UNIT1,AFN Node Temperature [C] !TimeStep,REPORTSCH
715,1,ZONERETURNNODE_UNIT1,AFN Node Temperature [C] !TimeStep,REPORTSCH
716,1,MIXERNODE_UNIT1,AFN Node Temperature [C] !TimeStep,REPORTSCH
717,1,MAINRETURNNODE_UNIT1,AFN Node Temperature [C] !TimeStep,REPORTSCH
718,1,MAININLETNODE_UNIT1,AFN Node Temperature [C] !TimeStep,REPORTSCH
719,1,FANOUTLETNODE_UNIT1,AFN Node Temperature [C] !TimeStep,REPORTSCH
720,1,HEATINGINLETNODE_UNIT1,AFN Node Temperature [C] !TimeStep,REPORTSCH
721,1,HEATINGOUTLETNODE_UNIT1,AFN Node Temperature [C] !TimeStep,REPORTSCH
722,1,SUPPHEATINGINLETNODE_UNIT1,AFN Node Temperature [C] !TimeStep,REPORTSCH
723,1,LIVING ZONE,AFN Zone Infiltration Sensible Heat Gain Energy [J] !TimeStep,REPORTSCH
724,1,LIVING ZONE,AFN Zone Mixing Sensible Heat Gain Energy [J] !TimeStep,REPORTSCH
725,1,LIVING ZONE,AFN Zone Infiltration Sensible Heat Loss Energy [J] !TimeStep,REPORTSCH
726,1,LIVING ZONE,AFN Zone Mixing Sensible Heat Loss Energy [J] !TimeStep,REPORTSCH
727,1,LIVING ZONE,AFN Zone Duct Leaked Air Sensible Heat Gain Energy [J] !TimeStep,REPORTSCH
728,1,LIVING ZONE,AFN Zone Duct Leaked Air Sensible Heat Loss Energy [J] !TimeStep,REPORTSCH
729,1,LIVING ZONE,AFN Zone Duct Conduction Sensible Heat Gain Energy [J] !TimeStep,REPORTSCH
730,1,LIVING ZONE,AFN Zone Duct Conduction Sensible Heat Loss Energy [J] !TimeStep,REPORTSCH
731,1,LIVING ZONE,AFN Distribution Sensible Heat Gain Rate [W] !TimeStep,REPORTSCH
732,1,LIVING ZONE,AFN Distribution Sensible Heat Gain Energy [J] !TimeStep,REPORTSCH
733,1,LIVING ZONE,AFN Distribution Sensible Heat Loss Rate [W] !TimeStep,REPORTSCH
734,1,LIVING ZONE,AFN Distribution Sensible Heat Loss Energy [J] !TimeStep,REPORTSCH
735,1,ATTIC_UNIT1,AFN Zone Infiltration Sensible Heat Gain Energy [J] !TimeStep,REPORTSCH
736,1,ATTIC_UNIT1,AFN Zone Mixing Sensible Heat Gain Energy [J] !TimeStep,REPORTSCH
737,1,ATTIC_UNIT1,AFN Zone Infiltration Sensible Heat Loss Energy [J] !TimeStep,REPORTSCH
738,1,ATTIC_UNIT1,AFN Zone Mixing Sensible Heat Loss Energy [J] !TimeStep,REPORTSCH
739,1,ATTIC_UNIT1,AFN Zone Duct Leaked Air Sensible Heat Gain Energy [J] !TimeStep,REPORTSCH
740,1,ATTIC_UNIT1,AFN Zone Duct Leaked Air Sensible Heat Loss Energy [J] !TimeStep,REPORTSCH
741,1,ATTIC_UNIT1,AFN Zone Duct Conduction Sensible Heat Gain Energy [J] !TimeStep,REPORTSCH
742,1,ATTIC_UNIT1,AFN Zone Duct Conduction Sensible Heat Loss Energy [J] !TimeStep,REPORTSCH
743,1,ATTIC_UNIT1,AFN Distribution Sensible Heat Gain Rate [W] !TimeStep,REPORTSCH
744,1,ATTIC_UNIT1,AFN Distribution Sensible Heat Gain Energy [J] !TimeStep,REPORTSCH
745,1,ATTIC_UNIT1,AFN Distribution Sensible Heat Loss Rate [W] !TimeStep,REPORTSCH
746,1,ATTIC_UNIT1,AFN Distribution Sensible Heat Loss Energy [J] !TimeStep,REPORTSCH
747,1,CRAWLSPACE_UNIT1,AFN Zone Infiltration Sensible Heat Gain Energy [J] !TimeStep,REPORTSCH
748,1,CRAWLSPACE_UNIT1,AFN Zone Mixing Sensible Heat Gain Energy [J] !TimeStep,REPORTSCH
749,1,CRAWLSPACE_UNIT1,AFN Zone Infiltration Sensible Heat Loss Energy [J] !TimeStep,REPORTSCH
750,1,CRAWLSPACE_UNIT1,AFN Zone Mixing Sensible Heat Loss Energy [J] !TimeStep,REPORTSCH
751,1,CRAWLSPACE_UNIT1,AFN Zone Duct Leaked Air Sensible Heat Gain Energy [J] !TimeStep,REPORTSCH
752,1,CRAWLSPACE_UNIT1,AFN Zone Duct Leaked Air Sensible Heat Loss Energy [J] !TimeStep,REPORTSCH
753,1,CRAWLSPACE_UNIT1,AFN Zone Duct Conduction Sensible Heat Gain Energy [J] !TimeStep,REPORTSCH
754,1,CRAWLSPACE_UNIT1,AFN Zone Duct Conduction Sensible Heat Loss Energy [J] !TimeStep,REPORTSCH
755,1,CRAWLSPACE_UNIT1,AFN Distribution Sensible Heat Gain Rate [W] !TimeStep,REPORTSCH
756,1,CRAWLSPACE_UNIT1,AFN Distribution Sensible Heat Gain Energy [J] !TimeStep,REPORTSCH
757,1,CRAWLSPACE_UNIT1,AFN Distribution Sensible Heat Loss Rate [W] !TimeStep,REPORTSCH
758,1,CRAWLSPACE_UNIT1,AFN Distribution Sensible Heat Loss Energy [J] !TimeStep,REPORTSCH
881,1,LIVING ZONE,Zone Air Temperature [C] !TimeStep,REPORTSCH
882,1,LIVING ZONE,Zone Air Temperature [C] !TimeStep
883,1,LIVING ZONE,Zone Thermostat Heating Setpoint Temperature [C] !TimeStep
884,1,LIVING ZONE,Zone Thermostat Cooling Setpoint Temperature [C] !TimeStep
947,1,ATTIC_UNIT1,Zone Air Temperature [C] !TimeStep,REPORTSCH
948,1,ATTIC_UNIT1,Zone Air Temperature [C] !TimeStep
949,1,ATTIC_UNIT1,Zone Thermostat Heating Setpoint Temperature [C] !TimeStep
950,1,ATTIC_UNIT1,Zone Thermostat Cooling Setpoint Temperature [C] !TimeStep
1013,1,CRAWLSPACE_UNIT1,Zone Air Temperature [C] !TimeStep,REPORTSCH
1014,1,CRAWLSPACE_UNIT1,Zone Air Temperature [C] !TimeStep
1015,1,CRAWLSPACE_UNIT1,Zone Thermostat Heating Setpoint Temperature [C] !TimeStep
1016,1,CRAWLSPACE_UNIT1,Zone Thermostat Cooling Setpoint Temperature [C] !TimeStep
1306,1,SUPP HEATING COIL,Heating Coil Heating Energy [J] !TimeStep,REPORTSCH
1307,1,SUPP HEATING COIL,Heating Coil Electricity Energy [J] !TimeStep
505,1,Electricity:HVAC [J] !TimeStep
555,1,Heating:Electricity [J] !TimeStep
796,1,Heating:EnergyTransfer:Zone:LIVING ZONE [J] !TimeStep
End of Data Dictionary
1,INTERNATIONAL FALLS INTL AP ANN HTG 99.6% CONDNS DB,  41.98, -87.65,  -6.00, 202.00
2,1, 1,21, 0, 1, 0.00,15.00,WinterDesignDay
7,-32.7
8,2.4
9,210.0
10,130.6910553622799
11,0.0
648,16.244195096230673
649,-26.974751939703246
650,-10.283746597159023
12,0.0
467,0.0
504,0.0
541,0.0
554,0.0
581,0.0
608,213814.54555407862
633,22500.000000000015
646,22500.000000000015
647,0.0
651,0.0
652,0.0
690,16.23867471538333
691,16.23867609293207
692,-26.977652898956354
693,-32.69025000230098
694,-32.69025000230098
695,-32.69025000230098
696,-32.69025000230098
697,-32.69025000230098
698,-32.69025000230098
699,-32.69025000230098
700,-32.69025000230098
701,-32.69025000230098
702,-32.69025000230098
703,-32.69025000230098
704,-32.69025000230098
705,-32.69025000230098
706,-32.69025000230098
707,-32.69025000230098
708,-32.69025000230098
709,47.16585601773137
710,46.76804031029264
711,43.85428249122698
712,40.94951337710356
713,40.94949443511604
714,16.238676092932074
715,15.745200549277124
716,15.259156727164088
717,15.199072549325725
718,15.19907254932573
719,15.874586691862723
720,15.874586691862723
721,47.165856017731365
722,15.874586691862723
723,0.0
724,0.0
725,2510779.3092101463
726,1464.4304604156473
727,0.0
728,0.0
729,0.0
730,0.0
731,0.0
732,0.0
733,0.0
734,0.0
735,0.0
736,1805932.569567473
737,3031001.30994427
738,0.0
739,967384.1131016088
740,0.0
741,1927920.4567909602
742,0.0
743,3217.0050776584103
744,2895304.5698925694
745,0.0
746,0.0
747,0.0
748,0.0
749,5343028.5446302015
750,0.0
751,0.0
752,0.0
753,321435.9651242053
754,0.0
755,357.1510723602281
756,321435.9651242053
757,0.0
758,0.0
881,16.244195096230673
882,16.244195096230673
883,22.2222222222223
884,23.888888888889
947,-26.974751939703246
948,-26.974751939703246
949,0.0
950,0.0
1013,-10.283746597159023
1014,-10.283746597159023
1015,0.0
1016,0.0
1306,9904350.048976954
1307,9904350.048976954
505,10343164.594531033
555,10084350.048976954
796,6988140.536535909
2,1, 1,21, 0, 1,15.00,30.00,WinterDesignDay
7,-32.7
8,2.4
9,210.0
10,130.6910553622799
11,0.0
648,16.245714869566253
649,-26.972962166638126
650,-10.282822036418303
12,0.0
467,0.0
504,0.0
541,0.0
554,0.0
581,0.0
608,213814.54555407862
633,22500.000000000015
646,22500.000000000015
647,0.0
651,0.0
652,0.0
690,16.244195096230673
691,16.244196473940654
692,-26.97475193970325
693,-32.69025000230098
694,-32.69025000230098
695,-32.69025000230098
696,-32.69025000230098
697,-32.69025000230098
698,-32.69025000230098
699,-32.69025000230098
700,-32.69025000230098
701,-32.69025000230098
702,-32.69025000230098
703,-32.69025000230098
704,-32.69025000230098
705,-32.69025000230098
706,-32.69025000230098
707,-32.69025000230098
708,-32.69025000230098
709,47.171693421748145
710,46.77385440844554
711,43.85992717278555
712,40.95498976477515
713,40.95497082169842
714,16.244196473940654
715,15.750628454550293
716,15.264493532922968
717,15.20439810869389
718,15.204398108693887
719,15.879923067405091
720,15.879923067405091
721,47.17169342174814
722,15.879923067405091
723,0.0
724,0.0
725,2510899.3958559125
726,1464.4729619737102
727,0.0
728,0.0
729,0.0
730,0.0
731,0.0
732,0.0
733,0.0
734,0.0
735,0.0
736,1805940.8539719135
737,3031968.530162307
738,0.0
739,967427.7273480879
740,0.0
741,1928000.9639809898
742,0.0
743,3217.1429903656417
744,2895428.6913290774
745,0.0
746,0.0
747,0.0
748,0.0
749,5343245.622619992
750,0.0
751,0.0
752,0.0
753,321490.9593091411
754,0.0
755,357.2121770101568
756,321490.9593091411
757,0.0
758,0.0
881,16.245714869566253
882,16.245714869566253
883,22.2222222222223
884,23.888888888889
947,-26.972962166638126
948,-26.972962166638126
949,0.0
950,0.0
1013,-10.282822036418303
1014,-10.282822036418303
1015,0.0
1016,0.0
1306,9904350.048976954
1307,9904350.048976954
505,10343164.594531033
555,10084350.048976954
796,6989284.238469565
2,1, 1,21, 0, 1,30.00,45.00,WinterDesignDay
7,-32.7
8,2.4
9,210.0
10,130.6910553622799
11,0.0
648,16.248783849668147
649,-26.972022952756042
650,-10.282049545131759
12,0.0
467,0.0
504,0.0
541,0.0
554,0.0
581,0.0
608,213814.54555407862
633,22500.000000000015
646,22500.000000000015
647,0.0
651,0.0
652,0.0
690,16.245714869566253
691,16.24571624731676
692,-26.972962166638126
693,-32.69025000230098
694,-32.69025000230098
695,-32.69025000230098
696,-32.69025000230098
697,-32.69025000230098
698,-32.69025000230098
699,-32.69025000230098
700,-32.69025000230098
701,-32.69025000230098
702,-32.69025000230098
703,-32.69025000230098
704,-32.69025000230098
705,-32.69025000230098
706,-32.69025000230098
707,-32.69025000230098
708,-32.69025000230098
709,47.17372227613012
710,46.775874779292906
711,43.861886644133385
712,40.95689131840515
713,40.95687237495819
714,16.24571624731676
715,15.75212848376907
716,15.265974095663687
717,15.20587627709069
718,15.205876277090692
719,15.881412872761597
720,15.881412872761597
721,47.173722276130114
722,15.881412872761597
723,0.0
724,0.0
725,2511009.852273753
726,1464.5432581858488
727,0.0
728,0.0
729,0.0
730,0.0
731,0.0
732,0.0
733,0.0
734,0.0
735,0.0
736,1805983.5417242604
737,3032478.0886642123
738,0.0
739,967416.3201068797
740,0.0
741,1928007.4459400955
742,0.0
743,3217.1375178299722
744,2895423.766046975
745,0.0
746,0.0
747,0.0
748,0.0
749,5343423.743063688
750,0.0
751,0.0
752,0.0
753,321498.3505228265
754,0.0
755,357.2203894698072
756,321498.3505228265
757,0.0
758,0.0
881,16.248783849668147
882,16.248783849668147
883,22.2222222222223
884,23.888888888889
947,-26.972022952756042
948,-26.972022952756042
949,0.0
950,0.0
1013,-10.282049545131759
1014,-10.282049545131759
1015,0.0
1016,0.0
1306,9904350.048976954
1307,9904350.048976954
505,10343164.594531033
555,10084350.048976954
796,6988749.186774344
2,1, 1,21, 0, 1,45.00,60.00,WinterDesignDay
7,-32.7
8,2.4
9,210.0
10,130.6910553622799
11,0.0
648,16.253349192382306
649,-26.971120549148026
650,-10.281338743088446
12,0.0
467,0.0
504,0.0
541,0.0
554,0.0
581,0.0
608,213814.54555407862
633,22500.000000000015
646,22500.000000000015
647,0.0
651,0.0
652,0.0
690,16.248783849668147
691,16.248785227502623
692,-26.972022952756042
693,-32.69025000230098
694,-32.69025000230098
695,-32.69025000230098
696,-32.69025000230098
697,-32.69025000230098
698,-32.69025000230098
699,-32.69025000230098
700,-32.69025000230098
701,-32.69025000230098
702,-32.69025000230098
703,-32.69025000230098
704,-32.69025000230098
705,-32.69025000230098
706,-32.69025000230098
707,-32.69025000230098
708,-32.69025000230098
709,47.17720008681935
710,46.779331742718355
711,43.86519215480278
712,40.96004837270995
713,40.960029428302555
714,16.248785227502626
715,15.755145142161577
716,15.2689392080598
717,15.20883503065112
718,15.208835030651116
719,15.884382594908573
720,15.884382594908573
721,47.17720008681935
722,15.884382594908573
723,0.0
724,0.0
725,2511226.3381817117
726,1464.7280492471045
727,0.0
728,0.0
729,0.0
730,0.0
731,0.0
732,0.0
733,0.0
734,0.0
735,0.0
736,1806111.6504186066
737,3032959.353766662
738,0.0
739,967437.6892704373
740,0.0
741,1928075.7293165973
742,0.0
743,3217.237131763372
744,2895513.4185870346
745,0.0
746,0.0
747,0.0
748,0.0
749,5343589.215728629
750,0.0
751,0.0
752,0.0
753,321527.2197862649
754,0.0
755,357.2524664291832
756,321527.2197862649
757,0.0
758,0.0
881,16.253349192382306
882,16.253349192382306
883,22.2222222222223
884,23.888888888889
947,-26.971120549148026
948,-26.971120549148026
949,0.0
950,0.0
1013,-10.281338743088446
1014,-10.281338743088446
1015,0.0
1016,0.0
1306,9904350.048976954
1307,9904350.048976954
505,10343164.594531033
555,10084350.048976954
796,6988132.530200644
2,1, 1,21, 0, 2, 0.00,15.00,WinterDesignDay
7,-32.7
8,2.4
9,210.0
10,130.6910553622799
11,0.0
648,16.254021335489313
649,-26.970202639257188
650,-10.280730726566851
12,0.0
467,0.0
504,0.0
541,0.0
554,0.0
581,0.0
608,213814.54555407862
633,22500.000000000015
646,22500.000000000015
647,0.0
651,0.0
652,0.0
690,16.253349192382306
691,16.25335057034517
692,-26.971120549148026
693,-32.69025000230098
694,-32.69025000230098
695,-32.69025000230098
696,-32.69025000230098
697,-32.69025000230098
698,-32.69025000230098
699,-32.69025000230098
700,-32.69025000230098
701,-32.69025000230098
702,-32.69025000230098
703,-32.69025000230098
704,-32.69025000230098
705,-32.69025000230098
706,-32.69025000230098
707,-32.69025000230098
708,-32.69025000230098
709,47.18206211401163
710,46.784165580646395
711,43.86982071198146
712,40.96447397301056
713,40.9644550272872
714,16.253350570345166
715,15.759628647603767
716,15.273342101225852
717,15.213227972445653
718,15.213227972445651
719,15.888785449299434
720,15.888785449299434
721,47.18206211401163
722,15.888785449299434
723,0.0
724,0.0
725,2511279.2952791057
726,1464.732644819997
727,0.0
728,0.0
729,0.0
730,0.0
731,0.0
732,0.0
733,0.0
734,0.0
735,0.0
736,1806102.3759068192
737,3033447.954322369
738,0.0
739,967484.6979171478
740,0.0
741,1928182.6316651534
742,0.0
743,3217.408143980335
744,2895667.3295823014
745,0.0
746,0.0
747,0.0
748,0.0
749,5343731.993289038
750,0.0
751,0.0
752,0.0
753,321575.74906171876
754,0.0
755,357.3063878463542
756,321575.74906171876
757,0.0
758,0.0
881,16.254021335489313
882,16.254021335489313
883,22.2222222222223
884,23.888888888889
947,-26.970202639257188
948,-26.970202639257188
949,0.0
950,0.0
1013,-10.280730726566851
1014,-10.280730726566851
1015,0.0
1016,0.0
1306,9904350.048976954
1307,9904350.048976954
505,10343164.594531033
555,10084350.048976954
796,6989234.485871554
2,1, 1,21, 0, 2,15.00,30.00,WinterDesignDay
7,-32.7
8,2.4
9,210.0
10,130.6910553622799
11,0.0
648,16.253375012703295
649,-26.96969523895893
650,-10.280193336049727
12,0.0
467,0.0
504,0.0
541,0.0
554,0.0
581,0.0
608,213814.54555407862
633,22500.000000000015
646,22500.000000000015
647,0.0
651,0.0
652,0.0
690,16.254021335489313
691,16.25402271346654
692,-26.970202639257188
693,-32.69025000230098
694,-32.69025000230098
695,-32.69025000230098
696,-32.69025000230098
697,-32.69025000230098
698,-32.69025000230098
699,-32.69025000230098
700,-32.69025000230098
701,-32.69025000230098
702,-32.69025000230098
703,-32.69025000230098
704,-32.69025000230098
705,-32.69025000230098
706,-32.69025000230098
707,-32.69025000230098
708,-32.69025000230098
709,47.183196515704125
710,46.78529264611797
711,43.87089510859434
712,40.96549886984711
713,40.965479923807294
714,16.254022713466547
715,15.760292394728511
716,15.273997565054705
717,15.21388242236787
718,15.21388242236787
719,15.889450041443457
720,15.889450041443457
721,47.183196515704125
722,15.889450041443457
723,0.0
724,0.0
725,2511188.9471652126
726,1464.607670744561
727,0.0
728,0.0
729,0.0
730,0.0
731,0.0
732,0.0
733,0.0
734,0.0
735,0.0
736,1806000.4939896648
737,3033721.96779385
738,0.0
739,967469.8160333673
740,0.0
741,1928188.0378822854
742,0.0
743,3217.3976154618367
744,2895657.853915653
745,0.0
746,0.0
747,0.0
748,0.0
749,5343855.072251895
750,0.0
751,0.0
752,0.0
753,321576.4798338897
754,0.0
755,357.307199815433
756,321576.4798338897
757,0.0
758,0.0
881,16.253375012703295
882,16.253375012703295
883,22.2222222222223
884,23.888888888889
947,-26.96969523895893
948,-26.96969523895893
949,0.0
950,0.0
1013,-10.280193336049727
1014,-10.280193336049727
1015,0.0
1016,0.0
1306,9904350.048976954
1307,9904350.048976954
505,10343164.594531033
555,10084350.048976954
796,6989671.47652064
2,1, 1,21, 0, 2,30.00,45.00,WinterDesignDay
7,-32.7
8,2.4
9,210.0
10,130.6910553622799
11,0.0
648,16.253606440062228
649,-26.96941527999525
650,-10.279683342507537
12,0.0
467,0.0
504,0.0
541,0.0
554,0.0
581,0.0
608,213814.54555407862
633,22500.000000000015
646,22500.000000000015
647,0.0
651,0.0
652,0.0
690,16.253375012703298
691,16.253376390655507
692,-26.96969523895893
693,-32.69025000230098
694,-32.69025000230098
695,-32.69025000230098
696,-32.69025000230098
697,-32.69025000230098
698,-32.69025000230098
699,-32.69025000230098
700,-32.69025000230098
701,-32.69025000230098
702,-32.69025000230098
703,-32.69025000230098
704,-32.69025000230098
705,-32.69025000230098
706,-32.69025000230098
707,-32.69025000230098
708,-32.69025000230098
709,47.1830480870804
710,46.785142038074895
711,43.87072952412238
712,40.96532188271201
713,40.96530293660354
714,16.253376390655504
715,15.75966214371679
716,15.273383129042767
717,15.21326994980834
718,15.213269949808337
719,15.888847374945328
720,15.888847374945328
721,47.183048087080394
722,15.888847374945328
723,0.0
724,0.0
725,2511118.459288379
726,1464.5149025163632
727,0.0
728,0.0
729,0.0
730,0.0
731,0.0
732,0.0
733,0.0
734,0.0
735,0.0
736,1805926.8790237717
737,3033872.740558413
738,0.0
739,967438.2959894615
740,0.0
741,1928169.5331364754
742,0.0
743,3217.342032362152
744,2895607.829125937
745,0.0
746,0.0
747,0.0
748,0.0
749,5343970.903267933
750,0.0
751,0.0
752,0.0
753,321561.48037087684
754,0.0
755,357.2905337454187
756,321561.48037087684
757,0.0
758,0.0
881,16.253606440062228
882,16.253606440062228
883,22.2222222222223
884,23.888888888889
947,-26.96941527999525
948,-26.96941527999525
949,0.0
950,0.0
1013,-10.279683342507537
1014,-10.279683342507537
1015,0.0
1016,0.0
1306,9904350.048976954
1307,9904350.048976954
505,10343164.594531033
555,10084350.048976954
796,6989431.80273146
2,1, 1,21, 0, 2,45.00,60.00,WinterDesignDay
7,-32.7
8,2.4
9,210.0
10,130.6910553622799
11,0.0
648,16.254686794755916
649,-26.96910160556109
650,-10.279185703842233
12,0.0
467,0.0
504,0.0
541,0.0
554,0.0
581,0.0
608,213814.54555407862
633,22500.000000000015
646,22500.000000000015
647,0.0
651,0.0
652,0.0
690,16.253606440062228
691,16.25360781801506
692,-26.96941527999525
693,-32.69025000230098
694,-32.69025000230098
695,-32.69025000230098
696,-32.69025000230098
697,-32.69025000230098
698,-32.69025000230098
699,-32.69025000230098
700,-32.69025000230098
701,-32.69025000230098
702,-32.69025000230098
703,-32.69025000230098
704,-32.69025000230098
705,-32.69025000230098
706,-32.69025000230098
707,-32.69025000230098
708,-32.69025000230098
709,47.18370614206773
710,46.78579259218045
711,43.87132608485572
712,40.96586771571338
713,40.965848769279674
714,16.25360781801506
715,15.759892591809546
716,15.273612600661878
717,15.213499309354525
718,15.213499309354525
719,15.889085793577296
720,15.889085793577296
721,47.18370614206773
722,15.889085793577296
723,0.0
724,0.0
725,2511112.3554341714
726,1464.4882733562422
727,0.0
728,0.0
729,0.0
730,0.0
731,0.0
732,0.0
733,0.0
734,0.0
735,0.0
736,1805903.3070143878
737,3034038.8307605353
738,0.0
739,967423.8599453341
740,0.0
741,1928178.9778051998
742,0.0
743,3217.336486389482
744,2895602.837750534
745,0.0
746,0.0
747,0.0
748,0.0
749,5344084.844691001
750,0.0
751,0.0
752,0.0
753,321557.90206235665
754,0.0
755,357.2865578470629
756,321557.90206235665
757,0.0
758,0.0
881,16.254686794755916
882,16.254686794755916
883,22.2222222222223
884,23.888888888889
947,-26.96910160556109
948,-26.96910160556109
949,0.0
950,0.0
1013,-10.279185703842233
1014,-10.279185703842233
1015,0.0
1016,0.0
1306,9904350.048976954
1307,9904350.048976954
505,10343164.594531033
555,10084350.048976954
796,6989152.225869144
2,1, 1,21, 0, 3, 0.00,15.00,WinterDesignDay
7,-32.7
8,2.4
9,210.0
10,130.6910553622799
11,0.0
648,16.255147099306832
649,-26.968733884117462
650,-10.27869810306227
12,0.0
467,0.0
504,0.0
541,0.0
554,0.0
581,0.0
608,213814.54555407862
633,22500.000000000015
646,22500.000000000015
647,0.0
651,0.0
652,0.0
690,16.254686794755916
691,16.254688172734916
692,-26.96910160556109
693,-32.69025000230098
694,-32.69025000230098
695,-32.69025000230098
696,-32.69025000230098
697,-32.69025000230098
698,-32.69025000230098
699,-32.69025000230098
700,-32.69025000230098
701,-32.69025000230098
702,-32.69025000230098
703,-32.69025000230098
704,-32.69025000230098
705,-32.69025000230098
706,-32.69025000230098
707,-32.69025000230098
708,-32.69025000230098
709,47.18514020602352
710,46.787215470878216
711,43.87266793060071
712,40.96713128757015
713,40.96711234063139
714,16.254688172734923
715,15.760955822119906
716,15.274658954722051
717,15.21454358592633
718,15.214543585926336
719,15.890138307039457
720,15.890138307039457
721,47.18514020602352
722,15.890138307039457
723,0.0
724,0.0
725,2511096.9365796843
726,1464.4458415866468
727,0.0
728,0.0
729,0.0
730,0.0
731,0.0
732,0.0
733,0.0
734,0.0
735,0.0
736,1805867.993525497
737,3034233.529855903
738,0.0
739,967423.9276418939
740,0.0
741,1928208.6636240857
742,0.0
743,3217.3695458510883
744,2895632.5912659797
745,0.0
746,0.0
747,0.0
748,0.0
749,5344197.401922204
750,0.0
751,0.0
752,0.0
753,321565.18934107095
754,0.0
755,357.29465482341215
756,321565.18934107095
757,0.0
758,0.0
881,16.255147099306832
882,16.255147099306832
883,22.2222222222223
884,23.888888888889
947,-26.968733884117462
948,-26.968733884117462
949,0.0
950,0.0
1013,-10.27869810306227
1014,-10.27869810306227
1015,0.0
1016,0.0
1306,9904350.048976954
1307,9904350.048976954
505,10343164.594531033
555,10084350.048976954
796,6989320.150167792
2,1, 1,21, 0, 3,15.00,30.00,WinterDesignDay
7,-32.7
8,2.4
9,210.0
10,130.6910553622799
11,0.0
648,16.255314128184445
649,-26.968448821657297
650,-10.278235559332622
12,0.0
467,0.0
504,0.0
541,0.0
554,0.0
581,0.0
608,213814.54555407862
633,22500.000000000015
646,22500.000000000015
647,0.0
651,0.0
652,0.0
690,16.255147099306832
691,16.255148477293993
692,-26.968733884117462
693,-32.69025000230098
694,-32.69025000230098
695,-32.69025000230098
696,-32.69025000230098
697,-32.69025000230098
698,-32.69025000230098
699,-32.69025000230098
700,-32.69025000230098
701,-32.69025000230098
702,-32.69025000230098
703,-32.69025000230098
704,-32.69025000230098
705,-32.69025000230098
706,-32.69025000230098
707,-32.69025000230098
708,-32.69025000230098
709,47.185980563043636
710,46.788048249461376
711,43.8734460726143
712,40.96785764137849
713,40.96783869410717
714,16.25514847729399
715,15.761410827556327
716,15.275108729902783
717,15.214992722670079
718,15.21499272267008
719,15.890595710953086
720,15.890595710953086
721,47.185980563043636
722,15.890595710953086
723,0.0
724,0.0
725,2511054.88197413
726,1464.3793474886515
727,0.0
728,0.0
729,0.0
730,0.0
731,0.0
732,0.0
733,0.0
734,0.0
735,0.0
736,1805816.0305328006
737,3034385.6173252887
738,0.0
739,967413.8134112175
740,0.0
741,1928220.8196976238
742,0.0
743,3217.3718145653793
744,2895634.6331088413
745,0.0
746,0.0
747,0.0
748,0.0
749,5344303.508712981
750,0.0
751,0.0
752,0.0
753,321564.7832559914
754,0.0
755,357.29420361776823
756,321564.7832559914
757,0.0
758,0.0
881,16.255314128184445
882,16.255314128184445
883,22.2222222222223
884,23.888888888889
947,-26.968448821657297
948,-26.968448821657297
949,0.0
950,0.0
1013,-10.278235559332622
1014,-10.278235559332622
1015,0.0
1016,0.0
1306,9904350.048976954
1307,9904350.048976954
505,10343164.594531033
555,10084350.048976954
796,6989411.200857186
2,1, 1,21, 0, 3,30.00,45.00,WinterDesignDay
7,-32.7
8,2.4
9,210.0
10,130.6910553622799
11,0.0
648,16.25572989652491
649,-26.968228249971027
650,-10.2777977657594
12,0.0
467,0.0
504,0.0
541,0.0
554,0.0
581,0.0
608,213814.54555407862
633,22500.000000000015
646,22500.000000000015
647,0.0
651,0.0
652,0.0
690,16.255314128184445
691,16.255315506171243
692,-26.968448821657297
693,-32.69025000230098
694,-32.69025000230098
695,-32.69025000230098
696,-32.69025000230098
697,-32.69025000230098
698,-32.69025000230098
699,-32.69025000230098
700,-32.69025000230098
701,-32.69025000230098
702,-32.69025000230098
703,-32.69025000230098
704,-32.69025000230098
705,-32.69025000230098
706,-32.69025000230098
707,-32.69025000230098
708,-32.69025000230098
709,47.18652249456307
710,46.788584032951675
711,43.873937650153124
712,40.96830784083065
713,40.96828889329436
714,16.25531550617124
715,15.761578014408439
716,15.275276061423478
717,15.21516007956604
718,15.21516007956604
719,15.890770983267116
720,15.890770983267116
721,47.18652249456308
722,15.890770983267116
723,0.0
724,0.0
725,2511022.0669243075
726,1464.326119853939
727,0.0
728,0.0
729,0.0
730,0.0
731,0.0
732,0.0
733,0.0
734,0.0
735,0.0
736,1805775.3003927837
737,3034503.060613101
738,0.0
739,967400.3759064333
740,0.0
741,1928227.106295681
742,0.0
743,3217.36386911346
744,2895627.482202114
745,0.0
746,0.0
747,0.0
748,0.0
749,5344403.679790113
750,0.0
751,0.0
752,0.0
753,321560.99735037726
754,0.0
755,357.2899970559747
756,321560.99735037726
757,0.0
758,0.0
881,16.25572989652491
882,16.25572989652491
883,22.2222222222223
884,23.888888888889
947,-26.968228249971027
948,-26.968228249971027
949,0.0
950,0.0
1013,-10.2777977657594
1014,-10.2777977657594
1015,0.0
1016,0.0
1306,9904350.048976954
1307,9904350.048976954
505,10343164.594531033
555,10084350.048976954
796,6989333.978692025
2,1, 1,21, 0, 3,45.00,60.00,WinterDesignDay
7,-32.7
8,2.4
9,210.0
10,130.6910553622799
11,0.0
648,16.2564461160532
649,-26.96800351279532
650,-10.27737730527813
12,0.0
467,0.0
504,0.0
541,0.0
554,0.0
581,0.0
608,213814.54555407862
633,22500.000000000015
646,22500.000000000015
647,0.0
651,0.0
652,0.0
690,16.25572989652491
691,16.255731274518936
692,-26.968228249971027
693,-32.69025000230098
694,-32.69025000230098
695,-32.69025000230098
696,-32.69025000230098
697,-32.69025000230098
698,-32.69025000230098
699,-32.69025000230098
700,-32.69025000230098
701,-32.69025000230098
702,-32.69025000230098
703,-32.69025000230098
704,-32.69025000230098
705,-32.69025000230098
706,-32.69025000230098
707,-32.69025000230098
708,-32.69025000230098
709,47.18727349133234
710,46.78932772351488
711,43.874628597836036
712,40.968948631969226
713,40.96892968411044
714,16.255731274518936
715,15.761989068050463
716,15.275682461656674
717,15.215565911717265